
:LABEL1: Calculations in /scratch/afonso/lacoo3
:LABEL2: on deimos at Čt kvě 12 14:17:47 CEST 2016
:LABEL3: using WIEN2k_13.1 (Release 17/6/2013) in /home/afonso/wien2k


            ---------
:ITE028: 28. ITERATION
            ---------

:NATO :    3 INDEPENDENT AND    5 TOTAL ATOMS IN UNITCELL
       SUBSTANCE: laco3                                                       

       LATTICE                      = P   
:POT  : POTENTIAL OPTION    5
:LAT  : LATTICE CONSTANTS=  7.26209  7.26209  7.26209    1.571    1.571    1.571
:VOL  : UNIT CELL VOLUME =     382.98775
       MODE OF CALCULATION IS       = RELA
       SPINPOLARIZED CALCULATION
:IFFT  : FFT-parameters:   60   60   60 Factor: 2.00
       ATOMNUMBER=  1 La         VCOUL-ZERO =  0.32774E+00
       ATOMNUMBER=  2 Co         VCOUL-ZERO =  0.38528E+00
       ATOMNUMBER=  3 O          VCOUL-ZERO =  0.68223E+00
:EFG003:                        EFG         =    11.01437   *10**21  V / m**2
                               V20  TOT/SRF=     9.53872     0.69536
                               V22  TOT/SRF=     0.00000     0.00000
                               V22M TOT/SRF=     0.00000     0.00000
                               V21  TOT/SRF=     0.00000     0.00000
                               V21M TOT/SRF=     0.00000     0.00000

             -5.50718    0.00000    0.00000       -5.50718    0.00000    0.00000
              0.00000   -5.50718    0.00000        0.00000   -5.50718    0.00000
              0.00000    0.00000   11.01437        0.00000    0.00000   11.01437

         MAIN DIRECTIONS OF THE EFG   1.0000  0.0000  0.0000
                                      0.0000  1.0000  0.0000
                                      0.0000  0.0000  1.0000
:ANG003:  ANGLE WITH OLD X-AXIS =         0.0

:ETA003:                         ASYMM. ETA =     0.00000


:FIT001: LUSE= 13 SIGMA OF V-XC FIT FOR ATOM  1  0.3129642E-03
:FIT001: LUSE= 13 SIGMA OF V-XC FIT FOR ATOM  1  0.3129642E-03
:FIT002: LUSE= 13 SIGMA OF V-XC FIT FOR ATOM  2  0.3586865E-02
:FIT002: LUSE= 13 SIGMA OF V-XC FIT FOR ATOM  2  0.3586865E-02
:FIT003: LUSE= 13 SIGMA OF V-XC FIT FOR ATOM  3  0.1946205E-03
:FIT003: LUSE= 13 SIGMA OF V-XC FIT FOR ATOM  3  0.1946205E-03
:DEN  : DENSITY INTEGRAL  =         -7922.23461883   (Ry)
       ELS_POTENTIAL_AT Z=0 and Z=0.5:   0.00000   0.00000
       ELS_POTENTIAL_AT Y=0 and Y=0.5:   0.00000   0.00000
:VZERO:v0,v0c,v0x  -0.85433   0.00000  -0.85433 v5,v5c,v5x  -0.85433   0.00000  -0.85433
:VZERY:v0,v0c,v0x  -0.85433   0.00000  -0.85433 v5,v5c,v5x  -0.85433   0.00000  -0.85433
:VZERX:v0,v0c,v0x  -4.26998  -3.14695  -1.12303 v5,v5c,v5x  -2.41600  -1.36060  -1.05540

          ATOMIC SPHERE DEPENDENT PARAMETERS FOR ATOM  La        
:e__0001: OVERALL ENERGY PARAMETER IS    0.4385
          OVERALL BASIS SET ON ATOM IS LAPW
:E0_0001: E( 0)=   -1.7187   E(BOTTOM)=   -2.190   E(TOP)=   -1.247  4  5   183
             APW+lo
:E0_0001: E( 0)=    0.8385
             LOCAL ORBITAL
:E1_0001: E( 1)=   -0.4187   E(BOTTOM)=   -1.161   E(TOP)=    0.324  3  4   189
             APW+lo
:E1_0001: E( 1)=    0.8385
             LOCAL ORBITAL
:E2_0001: E( 2)=    0.4385   E(BOTTOM)=    0.366   E(TOP)= -200.000  2 -1    82
             APW+lo

          ATOMIC SPHERE DEPENDENT PARAMETERS FOR ATOM  Co        
:e__0002: OVERALL ENERGY PARAMETER IS    0.4385
          OVERALL BASIS SET ON ATOM IS LAPW
:E1_0002: E( 1)=    0.4385
             APW+lo
:E1_0002: E( 1)=   -3.6780   E(BOTTOM)=   -3.833   E(TOP)=   -3.523  1  2   143
             LOCAL ORBITAL
:E2_0002: E( 2)=    0.4921   E(BOTTOM)=    0.035   E(TOP)=    0.949  0  1   147
             APW+lo
:E0_0002: E( 0)=    0.4385
             APW+lo

          ATOMIC SPHERE DEPENDENT PARAMETERS FOR ATOM  O         
:e__0003: OVERALL ENERGY PARAMETER IS    0.4385
          OVERALL BASIS SET ON ATOM IS LAPW
:E0_0003: E( 0)=   -0.5604   E(BOTTOM)=   -1.731   E(TOP)=    0.610  1  2   228
             APW+lo
:E0_0003: E( 0)=    0.8385
             LOCAL ORBITAL
:E1_0003: E( 1)=    0.4385
             APW+lo

       K=   0.04545   0.04545   0.04545            1
:RKM  : MATRIX SIZE  324LOs:  40  RKM= 5.97  WEIGHT= 8.00  PGR:    
       EIGENVALUES ARE:
:EIG00001:      -3.6436398   -3.6436282   -3.6436282   -1.6846085   -0.7450991
:EIG00006:      -0.6340596   -0.6340596   -0.4697891   -0.4697891   -0.4671130
:EIG00011:       0.2715200    0.2780017    0.2780017    0.4255457    0.4255457
:EIG00016:       0.4409120    0.4989073    0.5128250    0.5128250    0.5324759
:EIG00021:       0.5324759    0.5373136    0.6046186    0.6046186    0.8130911
:EIG00026:       0.8130911    0.8869781    0.9030008    0.9046437    0.9046437
:EIG00031:       0.9186145    0.9186145    0.9197664    1.0379778    1.0393554
:EIG00036:       1.0393554    1.0812999    1.3884106    1.8594059    1.8594059
:EIG00041:       1.8673964    1.9959331    2.0279832    2.0279832
       ********************************************************

:KPT   :      NUMBER OF K-POINTS:    56

          ATOMIC SPHERE DEPENDENT PARAMETERS FOR ATOM  La        
:e__0001: OVERALL ENERGY PARAMETER IS    0.4385
          OVERALL BASIS SET ON ATOM IS LAPW
:E0_0001: E( 0)=   -1.7187   E(BOTTOM)=   -2.190   E(TOP)=   -1.247  4  5   183
             APW+lo
:E0_0001: E( 0)=    0.8385
             LOCAL ORBITAL
:E1_0001: E( 1)=   -0.4187   E(BOTTOM)=   -1.161   E(TOP)=    0.324  3  4   189
             APW+lo
:E1_0001: E( 1)=    0.8385
             LOCAL ORBITAL
:E2_0001: E( 2)=    0.4385   E(BOTTOM)=    0.366   E(TOP)= -200.000  2 -1    82
             APW+lo

          ATOMIC SPHERE DEPENDENT PARAMETERS FOR ATOM  Co        
:e__0002: OVERALL ENERGY PARAMETER IS    0.4385
          OVERALL BASIS SET ON ATOM IS LAPW
:E1_0002: E( 1)=    0.4385
             APW+lo
:E1_0002: E( 1)=   -3.6780   E(BOTTOM)=   -3.833   E(TOP)=   -3.523  1  2   143
             LOCAL ORBITAL
:E2_0002: E( 2)=    0.4921   E(BOTTOM)=    0.035   E(TOP)=    0.949  0  1   146
             APW+lo
:E0_0002: E( 0)=    0.4385
             APW+lo

          ATOMIC SPHERE DEPENDENT PARAMETERS FOR ATOM  O         
:e__0003: OVERALL ENERGY PARAMETER IS    0.4385
          OVERALL BASIS SET ON ATOM IS LAPW
:E0_0003: E( 0)=   -0.5604   E(BOTTOM)=   -1.731   E(TOP)=    0.610  1  2   228
             APW+lo
:E0_0003: E( 0)=    0.8385
             LOCAL ORBITAL
:E1_0003: E( 1)=    0.4385
             APW+lo

       K=   0.04545   0.04545   0.04545            1
:RKM  : MATRIX SIZE  324LOs:  40  RKM= 5.97  WEIGHT= 8.00  PGR:    
       EIGENVALUES ARE:
:EIG00001:      -3.6436398   -3.6436282   -3.6436282   -1.6846085   -0.7450991
:EIG00006:      -0.6340596   -0.6340596   -0.4697891   -0.4697891   -0.4671130
:EIG00011:       0.2715200    0.2780017    0.2780017    0.4255457    0.4255457
:EIG00016:       0.4409120    0.4989073    0.5128250    0.5128250    0.5324759
:EIG00021:       0.5324759    0.5373136    0.6046186    0.6046186    0.8130911
:EIG00026:       0.8130911    0.8869781    0.9030008    0.9046437    0.9046437
:EIG00031:       0.9186145    0.9186145    0.9197664    1.0379778    1.0393554
:EIG00036:       1.0393554    1.0812999    1.3884106    1.8594059    1.8594059
:EIG00041:       1.8673964    1.9959331    2.0279832    2.0279832
       ********************************************************

:KPT   :      NUMBER OF K-POINTS:    56
:GAP  : -99999.   Ry = -9999.    eV  ( metallic )
         Bandranges (emin - emax) and occupancy:
:BAN00014:  14    0.255775    0.425546  1.00000000
:BAN00015:  15    0.299331    0.425546  1.00000000
:BAN00016:  16    0.302588    0.442394  1.00000000
:BAN00017:  17    0.391126    0.535721  1.00000000
:BAN00018:  18    0.434312    0.535721  1.00000000
:BAN00019:  19    0.445014    0.535721  1.00000000
:BAN00020:  20    0.531979    0.658390  0.94084449
:BAN00021:  21    0.532476    0.658390  0.92524731
:BAN00022:  22    0.537314    0.658390  0.90810861
:BAN00023:  23    0.604619    0.875283  0.21597458
:BAN00024:  24    0.604619    0.875292  0.00982502
:BAN00025:  25    0.813091    0.876173  0.00000000
:BAN00026:  26    0.813091    0.886153  0.00000000
:BAN00027:  27    0.876173    0.887289  0.00000000
:BAN00028:  28    0.886685    0.903001  0.00000000
:BAN00029:  29    0.889149    0.912178  0.00000000
        Energy to separate low and high energystates:    0.03276


:NOE  : NUMBER OF ELECTRONS          =  44.000

:FER  : F E R M I - ENERGY(TETRAH.M.)=   0.6384807833
:GMA  : POTENTIAL AND CHARGE CUT-OFF  12.00 Ry**.5




:POS001: ATOM    1 X,Y,Z = 0.00000 0.00000 0.00000  MULT= 1  ZZ= 57.000  La        

       LMMAX  5
       LM=   0 0  4 0  4 4  6 0  6 4

:CHA001: TOTAL VALENCE CHARGE INSIDE SPHERE   1 =   3.8916    (RMT=  2.5000 )
:PCS001: PARTIAL CHARGES SPHERE =  1 S,P,D,F,      D-EG,D-T2G 
:QTL001: 0.9725 2.6558 0.1783 0.0808 0.0000 0.0000 0.0000 0.0662 0.1120 0.0000 0.0000 0.0000
        Q-s-low E-s-low   Q-p-low E-p-low   Q-d-low E-d-low   Q-f-low E-f-low
:EPL001:  0.9498 -1.6705    2.5202 -0.4740    0.0064 -0.6387    0.0021 -0.6151
        Q-s-hi  E-s-hi    Q-p-hi  E-p-hi    Q-d-hi  E-d-hi    Q-f-hi  E-f-hi 
:EPH001:  0.0227  0.3257    0.1355  0.3579    0.1719  0.3947    0.0787  0.4571




:POS002: ATOM    2 X,Y,Z = 0.50000 0.50000 0.50000  MULT= 1  ZZ= 27.000  Co        

       LMMAX  5
       LM=   0 0  4 0  4 4  6 0  6 4

:CHA002: TOTAL VALENCE CHARGE INSIDE SPHERE   2 =   6.5252    (RMT=  1.9400 )
:PCS002: PARTIAL CHARGES SPHERE =  2 S,P,D,F,      D-EG,D-T2G 
:QTL002: 0.0913 3.0927 3.3186 0.0183 0.0000 0.0000 0.0000 0.8030 2.5156 0.0000 0.0000 0.0000
        Q-s-low E-s-low   Q-p-low E-p-low   Q-d-low E-d-low   Q-f-low E-f-low
:EPL002:  0.0197 -0.7032    2.9985 -3.6204    0.0343 -0.6264    0.0030 -0.6259
        Q-s-hi  E-s-hi    Q-p-hi  E-p-hi    Q-d-hi  E-d-hi    Q-f-hi  E-f-hi 
:EPH002:  0.0716  0.1880    0.0942  0.2826    3.2843  0.5015    0.0152  0.4165




:POS003: ATOM   -3 X,Y,Z = 0.50000 0.50000 0.00000  MULT= 3  ZZ=  8.000  O         

       LMMAX  6
       LM=   0 0  2 0  4 0  4 4  6 0  6 4

:CHA003: TOTAL VALENCE CHARGE INSIDE SPHERE   3 =   2.6580    (RMT=  1.6700 )
:PCS003: PARTIAL CHARGES SPHERE =  3 S,P,D,F,PZ,PXY,,D-Z2,D-XY,D-X2Y2,D-XZ,YZ 
:QTL003: 0.8125 1.8340 0.0088 0.0019 0.5546 1.2794 0.0000 0.0022 0.0006 0.0005 0.0054 0.0000
        Q-s-low E-s-low   Q-p-low E-p-low   Q-d-low E-d-low   Q-f-low E-f-low
:EPL003:  0.7968 -0.6558    0.0119 -0.6566    0.0012 -1.1891    0.0002 -2.0972
        Q-s-hi  E-s-hi    Q-p-hi  E-p-hi    Q-d-hi  E-d-hi    Q-f-hi  E-f-hi 
:EPH003:  0.0157  0.4061    1.8221  0.3748    0.0075  0.4732    0.0017  0.4359
:VZZ003: EFG INSIDE SPHERE   3 =     5.034843      UP TO R =   1.67000

:CHA  : TOTAL VALENCE CHARGE INSIDE UNIT CELL =      22.000000

:SUM  : SUM OF EIGENVALUES =         -11.153141921

:GAP  : -99999.   Ry = -9999.    eV  ( metallic )
         Bandranges (emin - emax) and occupancy:
:BAN00014:  14    0.255775    0.425546  1.00000000
:BAN00015:  15    0.299331    0.425546  1.00000000
:BAN00016:  16    0.302588    0.442394  1.00000000
:BAN00017:  17    0.391126    0.535721  1.00000000
:BAN00018:  18    0.434312    0.535721  1.00000000
:BAN00019:  19    0.445014    0.535721  1.00000000
:BAN00020:  20    0.531979    0.658390  0.94084449
:BAN00021:  21    0.532476    0.658390  0.92524731
:BAN00022:  22    0.537314    0.658390  0.90810861
:BAN00023:  23    0.604619    0.875283  0.21597458
:BAN00024:  24    0.604619    0.875292  0.00982502
:BAN00025:  25    0.813091    0.876173  0.00000000
:BAN00026:  26    0.813091    0.886153  0.00000000
:BAN00027:  27    0.876173    0.887289  0.00000000
:BAN00028:  28    0.886685    0.903001  0.00000000
:BAN00029:  29    0.889149    0.912178  0.00000000
        Energy to separate low and high energystates:    0.03276


:NOE  : NUMBER OF ELECTRONS          =  44.000

:FER  : F E R M I - ENERGY(TETRAH.M.)=   0.6384807833
:GMA  : POTENTIAL AND CHARGE CUT-OFF  12.00 Ry**.5




:POS001: ATOM    1 X,Y,Z = 0.00000 0.00000 0.00000  MULT= 1  ZZ= 57.000  La        

       LMMAX  5
       LM=   0 0  4 0  4 4  6 0  6 4

:CHA001: TOTAL VALENCE CHARGE INSIDE SPHERE   1 =   3.8916    (RMT=  2.5000 )
:PCS001: PARTIAL CHARGES SPHERE =  1 S,P,D,F,      D-EG,D-T2G 
:QTL001: 0.9725 2.6558 0.1783 0.0808 0.0000 0.0000 0.0000 0.0662 0.1120 0.0000 0.0000 0.0000
        Q-s-low E-s-low   Q-p-low E-p-low   Q-d-low E-d-low   Q-f-low E-f-low
:EPL001:  0.9498 -1.6705    2.5202 -0.4740    0.0064 -0.6387    0.0021 -0.6151
        Q-s-hi  E-s-hi    Q-p-hi  E-p-hi    Q-d-hi  E-d-hi    Q-f-hi  E-f-hi 
:EPH001:  0.0227  0.3257    0.1355  0.3579    0.1719  0.3947    0.0787  0.4571




:POS002: ATOM    2 X,Y,Z = 0.50000 0.50000 0.50000  MULT= 1  ZZ= 27.000  Co        

       LMMAX  5
       LM=   0 0  4 0  4 4  6 0  6 4

:CHA002: TOTAL VALENCE CHARGE INSIDE SPHERE   2 =   6.5252    (RMT=  1.9400 )
:PCS002: PARTIAL CHARGES SPHERE =  2 S,P,D,F,      D-EG,D-T2G 
:QTL002: 0.0913 3.0927 3.3186 0.0183 0.0000 0.0000 0.0000 0.8030 2.5156 0.0000 0.0000 0.0000
        Q-s-low E-s-low   Q-p-low E-p-low   Q-d-low E-d-low   Q-f-low E-f-low
:EPL002:  0.0197 -0.7032    2.9985 -3.6204    0.0343 -0.6264    0.0030 -0.6259
        Q-s-hi  E-s-hi    Q-p-hi  E-p-hi    Q-d-hi  E-d-hi    Q-f-hi  E-f-hi 
:EPH002:  0.0716  0.1880    0.0942  0.2826    3.2843  0.5015    0.0152  0.4165




:POS003: ATOM   -3 X,Y,Z = 0.50000 0.50000 0.00000  MULT= 3  ZZ=  8.000  O         

       LMMAX  6
       LM=   0 0  2 0  4 0  4 4  6 0  6 4

:CHA003: TOTAL VALENCE CHARGE INSIDE SPHERE   3 =   2.6580    (RMT=  1.6700 )
:PCS003: PARTIAL CHARGES SPHERE =  3 S,P,D,F,PZ,PXY,,D-Z2,D-XY,D-X2Y2,D-XZ,YZ 
:QTL003: 0.8125 1.8340 0.0088 0.0019 0.5546 1.2794 0.0000 0.0022 0.0006 0.0005 0.0054 0.0000
        Q-s-low E-s-low   Q-p-low E-p-low   Q-d-low E-d-low   Q-f-low E-f-low
:EPL003:  0.7968 -0.6558    0.0119 -0.6566    0.0012 -1.1891    0.0002 -2.0972
        Q-s-hi  E-s-hi    Q-p-hi  E-p-hi    Q-d-hi  E-d-hi    Q-f-hi  E-f-hi 
:EPH003:  0.0157  0.4061    1.8221  0.3748    0.0075  0.4732    0.0017  0.4359
:VZZ003: EFG INSIDE SPHERE   3 =     5.034843      UP TO R =   1.67000

:CHA  : TOTAL VALENCE CHARGE INSIDE UNIT CELL =      22.000000

:SUM  : SUM OF EIGENVALUES =         -11.153141920


        1.ATOM      La                   14 CORE STATES
:1S 001: 1S               -2841.676145306 Ry
:2S 001: 2S                -451.240821451 Ry
:2PP001: 2P*               -425.685716462 Ry
:2P 001: 2P                -395.359561448 Ry
:3S 001: 3S                 -95.514654703 Ry
:3PP001: 3P*                -84.720236132 Ry
:3P 001: 3P                 -78.812634728 Ry
:3DD001: 3D*                -59.836761963 Ry
:3D 001: 3D                 -58.571384202 Ry
:4S 001: 4S                 -18.283785804 Ry
:4PP001: 4P*                -14.312884272 Ry
:4P 001: 4P                 -13.047379084 Ry
:4DD001: 4D*                 -6.528313183 Ry
:4D 001: 4D                  -6.308978504 Ry

        2.ATOM      Co                    5 CORE STATES
:1S 002: 1S                -555.591752370 Ry
:2S 002: 2S                 -64.747092357 Ry
:2PP002: 2P*                -56.095300910 Ry
:2P 002: 2P                 -55.008377838 Ry
:3S 002: 3S                  -6.312885428 Ry

        3.ATOM      O                     1 CORE STATES
:1S 003: 1S                 -36.245872749 Ry

        1.ATOM      La                   14 CORE STATES
:1S 001: 1S               -2841.676145306 Ry
:2S 001: 2S                -451.240821451 Ry
:2PP001: 2P*               -425.685716462 Ry
:2P 001: 2P                -395.359561448 Ry
:3S 001: 3S                 -95.514654703 Ry
:3PP001: 3P*                -84.720236132 Ry
:3P 001: 3P                 -78.812634728 Ry
:3DD001: 3D*                -59.836761963 Ry
:3D 001: 3D                 -58.571384202 Ry
:4S 001: 4S                 -18.283785804 Ry
:4PP001: 4P*                -14.312884272 Ry
:4P 001: 4P                 -13.047379084 Ry
:4DD001: 4D*                 -6.528313183 Ry
:4D 001: 4D                  -6.308978504 Ry

        2.ATOM      Co                    5 CORE STATES
:1S 002: 1S                -555.591752370 Ry
:2S 002: 2S                 -64.747092357 Ry
:2PP002: 2P*                -56.095300910 Ry
:2P 002: 2P                 -55.008377838 Ry
:3S 002: 3S                  -6.312885428 Ry

        3.ATOM      O                     1 CORE STATES
:1S 003: 1S                 -36.245872749 Ry
:CINT001 Core Integral Atom   1 Up   22.999414 Dn  22.999414 Total  45.998828
:CINT002 Core Integral Atom   2 Up    5.997388 Dn   5.997388 Total  11.994776
:CINT003 Core Integral Atom   3 Up    1.000000 Dn   1.000000 Total   2.000000

       DENSITY AT NUCLEUS
        JATOM      VALENCE       SEMI-CORE          CORE           TOTAL
:RTO001:   1      500.318900        0.000000   535464.354255   535964.673155
:RTO002:   2        6.022113        0.000000    17399.223968    17405.246081
:RTO003:   3       15.043120        0.000000      299.383767      314.426887

       HYPERFINE FIELDS FOR THOMSON RADIUS
:HFF001:           -0.000           0.000           0.000          -0.000 (KGAUSS)
:HFF002:           -0.000           0.000           0.000           0.000 (KGAUSS)
:HFF003:           -0.000           0.000           0.000          -0.000 (KGAUSS)
     
       CHARGES OF NEW CHARGE DENSITY
:NTO   : INTERSTITIAL     UP =     3.609233 DN =     3.609233 TOT =     7.218466
:NTO001: CHARGE SPHERE  1 UP =    26.891001 DN =    26.891001 TOT =    53.782002
:NTO002: CHARGE SPHERE  2 UP =    12.522631 DN =    12.522631 TOT =    25.045262
:NTO003: CHARGE SPHERE  3 UP =     3.657976 DN =     3.657976 TOT =     7.315952

:NEC01: NUCLEAR AND ELECTRONIC CHARGE    108.00000   107.99359
     
       CHARGES OF OLD CHARGE DENSITY
:OTO   : INTERSTITIAL     UP =     3.613259 DN =     3.613259 TOT =     7.226518
:OTO001: CHARGE SPHERE  1 UP =    26.891406 DN =    26.891406 TOT =    53.782813
:OTO002: CHARGE SPHERE  2 UP =    12.520389 DN =    12.520389 TOT =    25.040778
:OTO003: CHARGE SPHERE  3 UP =     3.658315 DN =     3.658315 TOT =     7.316630
:DNEW  1   -0.0004   -0.0004
:DNEW  2    0.0022    0.0022
:DNEW  3   -0.0003   -0.0003

:NEC02: NUCLEAR AND ELECTRONIC CHARGE    108.00000   108.00000
     
       CONVERGENCE TEST
:DTO001: DIFFERENCE SPHERE  1 UP =  0.0002393 DN =  0.0002393 TOT =  0.0004786
:DTO002: DIFFERENCE SPHERE  2 UP =  0.0029531 DN =  0.0029531 TOT =  0.0059063
:DTO003: DIFFERENCE SPHERE  3 UP =  0.0005345 DN =  0.0005345 TOT =  0.0010690

:DIS  :  CHARGE DISTANCE       ( 0.0029531 for atom    2 spin 2)      0.0038367
:BIG check (qbig,qrms,qtot)    0.984D-03   0.982D-03   0.384D-02
 
******************************************************
* MULTISECANT MIXING VER6 RELEASE 6.0 OPTIONS        *
* Standard Mode with controls                        *
* Regularization       1.000E-06                     *
* Trust Region Control Active                        *
* Max Number of Memory Steps    8                    *
******************************************************
 
:PLANE:  INTERSTITIAL TOTAL      2.74879 DISTAN  1.073E-01 % 
:CHARG:  CLM CHARGE   /ATOM     88.17042 DISTAN  2.582E-02 % 
:DIRM :  MEMORY  0/8 RESCALES   1.00
:MIX  :   PRATT  REGULARIZATION: 1.00E-06  GREED: 0.025
     
       CHARGES OF MIXED CHARGE DENSITY
:CTO   : INTERSTITIAL     UP =     3.613238 DN =     3.613238 TOT =     7.226477
:CTO001: CHARGE SPHERE  1 UP =    26.891396 DN =    26.891396 TOT =    53.782792
:CTO002: CHARGE SPHERE  2 UP =    12.520445 DN =    12.520445 TOT =    25.040891
:CTO003: CHARGE SPHERE  3 UP =     3.658307 DN =     3.658307 TOT =     7.316613

       SPIN MAGNETIC MOMENTS OF MIXED CHARGE DENSITY
:MMINT:  MAGNETIC MOMENT IN INTERSTITIAL  =   -0.00000
:MMI001: MAGNETIC MOMENT IN SPHERE   1    =   -0.00000
:MMI002: MAGNETIC MOMENT IN SPHERE   2    =   -0.00000
:MMI003: MAGNETIC MOMENT IN SPHERE   3    =   -0.00000
:MMTOT:  SPIN MAGNETIC MOMENT IN CELL     =   -0.00000

:NEC03: NUCLEAR AND ELECTRONIC CHARGE    108.00000   108.00000

PW CHANGE     H    K    L       Current     Change     Residue
:PUP001:      0    0    0  3.49801856E-02  2.326E-07  9.304E-06
:PUP002:     -1    0    0  1.25099460E-02  4.982E-07  1.993E-05
:PUP003:     -1   -1    0  4.47956752E-02  2.249E-06  8.995E-05
:PUP004:     -1   -1   -1  7.45988930E-02  1.188E-06  4.752E-05
:PUP005:     -2    0    0  4.32516071E-02  9.081E-07  3.633E-05
:PUP006:     -2   -1    0  1.12856987E-02  1.877E-06  7.510E-05
:PUP007:     -2   -1   -1  6.55015339E-03  1.000E-06  4.001E-05
:PUP008:     -2   -2    0  1.49222829E-02  8.815E-07  3.526E-05
:PUP009:     -3    0    0  1.66767903E-03 -1.935E-07 -7.740E-06
:PUP010:     -2   -2   -1  3.80017467E-03  1.981E-06  7.923E-05
:PUP011:     -3   -1    0 -7.54375319E-03  1.811E-06  7.243E-05
:PUP012:     -3   -1   -1  9.85690826E-03  1.249E-06  4.995E-05
:PDN001:      0    0    0  3.49801856E-02  2.326E-07  9.304E-06
:PDN002:     -1    0    0  1.25099460E-02  4.982E-07  1.993E-05
:PDN003:     -1   -1    0  4.47956752E-02  2.249E-06  8.995E-05
:PDN004:     -1   -1   -1  7.45988930E-02  1.188E-06  4.752E-05
:PDN005:     -2    0    0  4.32516071E-02  9.081E-07  3.633E-05
:PDN006:     -2   -1    0  1.12856987E-02  1.877E-06  7.510E-05
:PDN007:     -2   -1   -1  6.55015339E-03  1.000E-06  4.001E-05
:PDN008:     -2   -2    0  1.49222829E-02  8.815E-07  3.526E-05
:PDN009:     -3    0    0  1.66767903E-03 -1.935E-07 -7.740E-06
:PDN010:     -2   -2   -1  3.80017467E-03  1.981E-06  7.923E-05
:PDN011:     -3   -1    0 -7.54375319E-03  1.811E-06  7.243E-05
:PDN012:     -3   -1   -1  9.85690826E-03  1.249E-06  4.995E-05

:ENE  : ********** TOTAL ENERGY IN Ry =       -20214.03297877



            ---------
:ITE029: 29. ITERATION
            ---------

:NATO :    3 INDEPENDENT AND    5 TOTAL ATOMS IN UNITCELL
       SUBSTANCE: laco3                                                       

       LATTICE                      = P   
:POT  : POTENTIAL OPTION    5
:LAT  : LATTICE CONSTANTS=  7.26209  7.26209  7.26209    1.571    1.571    1.571
:VOL  : UNIT CELL VOLUME =     382.98775
       MODE OF CALCULATION IS       = RELA
       SPINPOLARIZED CALCULATION
:IFFT  : FFT-parameters:   60   60   60 Factor: 2.00
       ATOMNUMBER=  1 La         VCOUL-ZERO =  0.32772E+00
       ATOMNUMBER=  2 Co         VCOUL-ZERO =  0.38533E+00
       ATOMNUMBER=  3 O          VCOUL-ZERO =  0.68223E+00
:EFG003:                        EFG         =    11.01135   *10**21  V / m**2
                               V20  TOT/SRF=     9.53611     0.69521
                               V22  TOT/SRF=     0.00000     0.00000
                               V22M TOT/SRF=     0.00000     0.00000
                               V21  TOT/SRF=     0.00000     0.00000
                               V21M TOT/SRF=     0.00000     0.00000

             -5.50567    0.00000    0.00000       -5.50567    0.00000    0.00000
              0.00000   -5.50567    0.00000        0.00000   -5.50567    0.00000
              0.00000    0.00000   11.01135        0.00000    0.00000   11.01135

         MAIN DIRECTIONS OF THE EFG   1.0000  0.0000  0.0000
                                      0.0000  1.0000  0.0000
                                      0.0000  0.0000  1.0000
:ANG003:  ANGLE WITH OLD X-AXIS =         0.0

:ETA003:                         ASYMM. ETA =     0.00000


:FIT001: LUSE= 13 SIGMA OF V-XC FIT FOR ATOM  1  0.3129775E-03
:FIT001: LUSE= 13 SIGMA OF V-XC FIT FOR ATOM  1  0.3129775E-03
:FIT002: LUSE= 13 SIGMA OF V-XC FIT FOR ATOM  2  0.3587583E-02
:FIT002: LUSE= 13 SIGMA OF V-XC FIT FOR ATOM  2  0.3587583E-02
:FIT003: LUSE= 13 SIGMA OF V-XC FIT FOR ATOM  3  0.1946858E-03
:FIT003: LUSE= 13 SIGMA OF V-XC FIT FOR ATOM  3  0.1946858E-03
:DEN  : DENSITY INTEGRAL  =         -7922.23755003   (Ry)
       ELS_POTENTIAL_AT Z=0 and Z=0.5:   0.00000   0.00000
       ELS_POTENTIAL_AT Y=0 and Y=0.5:   0.00000   0.00000
:VZERO:v0,v0c,v0x  -0.85433   0.00000  -0.85433 v5,v5c,v5x  -0.85433   0.00000  -0.85433
:VZERY:v0,v0c,v0x  -0.85433   0.00000  -0.85433 v5,v5c,v5x  -0.85433   0.00000  -0.85433
:VZERX:v0,v0c,v0x  -4.27006  -3.14703  -1.12303 v5,v5c,v5x  -2.41592  -1.36051  -1.05540

          ATOMIC SPHERE DEPENDENT PARAMETERS FOR ATOM  La        
:e__0001: OVERALL ENERGY PARAMETER IS    0.4385
          OVERALL BASIS SET ON ATOM IS LAPW
:E0_0001: E( 0)=   -1.7188   E(BOTTOM)=   -2.190   E(TOP)=   -1.247  4  5   182
             APW+lo
:E0_0001: E( 0)=    0.8385
             LOCAL ORBITAL
:E1_0001: E( 1)=   -0.4187   E(BOTTOM)=   -1.161   E(TOP)=    0.324  3  4   185
             APW+lo
:E1_0001: E( 1)=    0.8385
             LOCAL ORBITAL
:E2_0001: E( 2)=    0.4385   E(BOTTOM)=    0.365   E(TOP)= -200.000  2 -1    86
             APW+lo

          ATOMIC SPHERE DEPENDENT PARAMETERS FOR ATOM  Co        
:e__0002: OVERALL ENERGY PARAMETER IS    0.4385
          OVERALL BASIS SET ON ATOM IS LAPW
:E1_0002: E( 1)=    0.4385
             APW+lo
:E1_0002: E( 1)=   -3.6779   E(BOTTOM)=   -3.833   E(TOP)=   -3.523  1  2   146
             LOCAL ORBITAL
:E2_0002: E( 2)=    0.4922   E(BOTTOM)=    0.035   E(TOP)=    0.949  0  1   147
             APW+lo
:E0_0002: E( 0)=    0.4385
             APW+lo

          ATOMIC SPHERE DEPENDENT PARAMETERS FOR ATOM  O         
:e__0003: OVERALL ENERGY PARAMETER IS    0.4385
          OVERALL BASIS SET ON ATOM IS LAPW
:E0_0003: E( 0)=   -0.5604   E(BOTTOM)=   -1.731   E(TOP)=    0.610  1  2   224
             APW+lo
:E0_0003: E( 0)=    0.8385
             LOCAL ORBITAL
:E1_0003: E( 1)=    0.4385
             APW+lo

       K=   0.04545   0.04545   0.04545            1
:RKM  : MATRIX SIZE  324LOs:  40  RKM= 5.97  WEIGHT= 8.00  PGR:    
       EIGENVALUES ARE:
:EIG00001:      -3.6434805   -3.6434689   -3.6434689   -1.6846304   -0.7450983
:EIG00006:      -0.6340587   -0.6340587   -0.4698086   -0.4698086   -0.4671324
:EIG00011:       0.2715282    0.2780116    0.2780116    0.4255460    0.4255460
:EIG00016:       0.4409034    0.4989600    0.5128609    0.5128609    0.5325624
:EIG00021:       0.5325624    0.5373784    0.6047511    0.6047511    0.8130770
:EIG00026:       0.8130770    0.8869522    0.9029741    0.9046171    0.9046171
:EIG00031:       0.9185886    0.9185886    0.9197400    1.0379714    1.0393490
:EIG00036:       1.0393490    1.0812953    1.3884475    1.8594107    1.8594107
:EIG00041:       1.8674012    1.9959549    2.0280061    2.0280061
       ********************************************************

:KPT   :      NUMBER OF K-POINTS:    56

          ATOMIC SPHERE DEPENDENT PARAMETERS FOR ATOM  La        
:e__0001: OVERALL ENERGY PARAMETER IS    0.4385
          OVERALL BASIS SET ON ATOM IS LAPW
:E0_0001: E( 0)=   -1.7188   E(BOTTOM)=   -2.190   E(TOP)=   -1.247  4  5   182
             APW+lo
:E0_0001: E( 0)=    0.8385
             LOCAL ORBITAL
:E1_0001: E( 1)=   -0.4187   E(BOTTOM)=   -1.161   E(TOP)=    0.324  3  4   185
             APW+lo
:E1_0001: E( 1)=    0.8385
             LOCAL ORBITAL
:E2_0001: E( 2)=    0.4385   E(BOTTOM)=    0.365   E(TOP)= -200.000  2 -1    86
             APW+lo

          ATOMIC SPHERE DEPENDENT PARAMETERS FOR ATOM  Co        
:e__0002: OVERALL ENERGY PARAMETER IS    0.4385
          OVERALL BASIS SET ON ATOM IS LAPW
:E1_0002: E( 1)=    0.4385
             APW+lo
:E1_0002: E( 1)=   -3.6779   E(BOTTOM)=   -3.833   E(TOP)=   -3.523  1  2   146
             LOCAL ORBITAL
:E2_0002: E( 2)=    0.4922   E(BOTTOM)=    0.035   E(TOP)=    0.949  0  1   147
             APW+lo
:E0_0002: E( 0)=    0.4385
             APW+lo

          ATOMIC SPHERE DEPENDENT PARAMETERS FOR ATOM  O         
:e__0003: OVERALL ENERGY PARAMETER IS    0.4385
          OVERALL BASIS SET ON ATOM IS LAPW
:E0_0003: E( 0)=   -0.5604   E(BOTTOM)=   -1.731   E(TOP)=    0.610  1  2   224
             APW+lo
:E0_0003: E( 0)=    0.8385
             LOCAL ORBITAL
:E1_0003: E( 1)=    0.4385
             APW+lo

       K=   0.04545   0.04545   0.04545            1
:RKM  : MATRIX SIZE  324LOs:  40  RKM= 5.97  WEIGHT= 8.00  PGR:    
       EIGENVALUES ARE:
:EIG00001:      -3.6434805   -3.6434689   -3.6434689   -1.6846304   -0.7450983
:EIG00006:      -0.6340587   -0.6340587   -0.4698086   -0.4698086   -0.4671324
:EIG00011:       0.2715282    0.2780116    0.2780116    0.4255460    0.4255460
:EIG00016:       0.4409034    0.4989600    0.5128609    0.5128609    0.5325624
:EIG00021:       0.5325624    0.5373784    0.6047511    0.6047511    0.8130770
:EIG00026:       0.8130770    0.8869522    0.9029741    0.9046171    0.9046171
:EIG00031:       0.9185886    0.9185886    0.9197400    1.0379714    1.0393490
:EIG00036:       1.0393490    1.0812953    1.3884475    1.8594107    1.8594107
:EIG00041:       1.8674012    1.9959549    2.0280061    2.0280061
       ********************************************************

:KPT   :      NUMBER OF K-POINTS:    56
:GAP  : -99999.   Ry = -9999.    eV  ( metallic )
         Bandranges (emin - emax) and occupancy:
:BAN00014:  14    0.255817    0.425546  1.00000000
:BAN00015:  15    0.299351    0.425546  1.00000000
:BAN00016:  16    0.302621    0.442386  1.00000000
:BAN00017:  17    0.391133    0.535711  1.00000000
:BAN00018:  18    0.434319    0.535711  1.00000000
:BAN00019:  19    0.445029    0.535711  1.00000000
:BAN00020:  20    0.532084    0.658489  0.94086904
:BAN00021:  21    0.532562    0.658489  0.92526796
:BAN00022:  22    0.537378    0.658489  0.90816779
:BAN00023:  23    0.604751    0.875383  0.21587654
:BAN00024:  24    0.604751    0.875392  0.00981867
:BAN00025:  25    0.813077    0.876147  0.00000000
:BAN00026:  26    0.813077    0.886128  0.00000000
:BAN00027:  27    0.876147    0.887265  0.00000000
:BAN00028:  28    0.886660    0.902974  0.00000000
:BAN00029:  29    0.889123    0.912152  0.00000000
        Energy to separate low and high energystates:    0.03278


:NOE  : NUMBER OF ELECTRONS          =  44.000

:FER  : F E R M I - ENERGY(TETRAH.M.)=   0.6385868852
:GMA  : POTENTIAL AND CHARGE CUT-OFF  12.00 Ry**.5




:POS001: ATOM    1 X,Y,Z = 0.00000 0.00000 0.00000  MULT= 1  ZZ= 57.000  La        

       LMMAX  5
       LM=   0 0  4 0  4 4  6 0  6 4

:CHA001: TOTAL VALENCE CHARGE INSIDE SPHERE   1 =   3.8916    (RMT=  2.5000 )
:PCS001: PARTIAL CHARGES SPHERE =  1 S,P,D,F,      D-EG,D-T2G 
:QTL001: 0.9725 2.6558 0.1783 0.0808 0.0000 0.0000 0.0000 0.0662 0.1120 0.0000 0.0000 0.0000
        Q-s-low E-s-low   Q-p-low E-p-low   Q-d-low E-d-low   Q-f-low E-f-low
:EPL001:  0.9498 -1.6705    2.5202 -0.4741    0.0064 -0.6387    0.0021 -0.6151
        Q-s-hi  E-s-hi    Q-p-hi  E-p-hi    Q-d-hi  E-d-hi    Q-f-hi  E-f-hi 
:EPH001:  0.0227  0.3257    0.1355  0.3579    0.1719  0.3947    0.0788  0.4571




:POS002: ATOM    2 X,Y,Z = 0.50000 0.50000 0.50000  MULT= 1  ZZ= 27.000  Co        

       LMMAX  5
       LM=   0 0  4 0  4 4  6 0  6 4

:CHA002: TOTAL VALENCE CHARGE INSIDE SPHERE   2 =   6.5249    (RMT=  1.9400 )
:PCS002: PARTIAL CHARGES SPHERE =  2 S,P,D,F,      D-EG,D-T2G 
:QTL002: 0.0913 3.0927 3.3183 0.0183 0.0000 0.0000 0.0000 0.8027 2.5156 0.0000 0.0000 0.0000
        Q-s-low E-s-low   Q-p-low E-p-low   Q-d-low E-d-low   Q-f-low E-f-low
:EPL002:  0.0197 -0.7032    2.9985 -3.6202    0.0343 -0.6264    0.0030 -0.6259
        Q-s-hi  E-s-hi    Q-p-hi  E-p-hi    Q-d-hi  E-d-hi    Q-f-hi  E-f-hi 
:EPH002:  0.0716  0.1880    0.0942  0.2826    3.2840  0.5017    0.0152  0.4165




:POS003: ATOM   -3 X,Y,Z = 0.50000 0.50000 0.00000  MULT= 3  ZZ=  8.000  O         

       LMMAX  6
       LM=   0 0  2 0  4 0  4 4  6 0  6 4

:CHA003: TOTAL VALENCE CHARGE INSIDE SPHERE   3 =   2.6581    (RMT=  1.6700 )
:PCS003: PARTIAL CHARGES SPHERE =  3 S,P,D,F,PZ,PXY,,D-Z2,D-XY,D-X2Y2,D-XZ,YZ 
:QTL003: 0.8125 1.8341 0.0088 0.0019 0.5547 1.2794 0.0000 0.0022 0.0006 0.0005 0.0054 0.0000
        Q-s-low E-s-low   Q-p-low E-p-low   Q-d-low E-d-low   Q-f-low E-f-low
:EPL003:  0.7968 -0.6558    0.0119 -0.6566    0.0012 -1.1892    0.0002 -2.0972
        Q-s-hi  E-s-hi    Q-p-hi  E-p-hi    Q-d-hi  E-d-hi    Q-f-hi  E-f-hi 
:EPH003:  0.0157  0.4061    1.8222  0.3748    0.0075  0.4733    0.0017  0.4360
:VZZ003: EFG INSIDE SPHERE   3 =     5.032719      UP TO R =   1.67000

:CHA  : TOTAL VALENCE CHARGE INSIDE UNIT CELL =      22.000000

:SUM  : SUM OF EIGENVALUES =         -11.152286241

:GAP  : -99999.   Ry = -9999.    eV  ( metallic )
         Bandranges (emin - emax) and occupancy:
:BAN00014:  14    0.255817    0.425546  1.00000000
:BAN00015:  15    0.299351    0.425546  1.00000000
:BAN00016:  16    0.302621    0.442386  1.00000000
:BAN00017:  17    0.391133    0.535711  1.00000000
:BAN00018:  18    0.434319    0.535711  1.00000000
:BAN00019:  19    0.445029    0.535711  1.00000000
:BAN00020:  20    0.532084    0.658489  0.94086904
:BAN00021:  21    0.532562    0.658489  0.92526796
:BAN00022:  22    0.537378    0.658489  0.90816779
:BAN00023:  23    0.604751    0.875383  0.21587655
:BAN00024:  24    0.604751    0.875392  0.00981867
:BAN00025:  25    0.813077    0.876147  0.00000000
:BAN00026:  26    0.813077    0.886128  0.00000000
:BAN00027:  27    0.876147    0.887265  0.00000000
:BAN00028:  28    0.886660    0.902974  0.00000000
:BAN00029:  29    0.889123    0.912152  0.00000000
        Energy to separate low and high energystates:    0.03278


:NOE  : NUMBER OF ELECTRONS          =  44.000

:FER  : F E R M I - ENERGY(TETRAH.M.)=   0.6385868852
:GMA  : POTENTIAL AND CHARGE CUT-OFF  12.00 Ry**.5




:POS001: ATOM    1 X,Y,Z = 0.00000 0.00000 0.00000  MULT= 1  ZZ= 57.000  La        

       LMMAX  5
       LM=   0 0  4 0  4 4  6 0  6 4

:CHA001: TOTAL VALENCE CHARGE INSIDE SPHERE   1 =   3.8916    (RMT=  2.5000 )
:PCS001: PARTIAL CHARGES SPHERE =  1 S,P,D,F,      D-EG,D-T2G 
:QTL001: 0.9725 2.6558 0.1783 0.0808 0.0000 0.0000 0.0000 0.0662 0.1120 0.0000 0.0000 0.0000
        Q-s-low E-s-low   Q-p-low E-p-low   Q-d-low E-d-low   Q-f-low E-f-low
:EPL001:  0.9498 -1.6705    2.5202 -0.4741    0.0064 -0.6387    0.0021 -0.6151
        Q-s-hi  E-s-hi    Q-p-hi  E-p-hi    Q-d-hi  E-d-hi    Q-f-hi  E-f-hi 
:EPH001:  0.0227  0.3257    0.1355  0.3579    0.1719  0.3947    0.0788  0.4571




:POS002: ATOM    2 X,Y,Z = 0.50000 0.50000 0.50000  MULT= 1  ZZ= 27.000  Co        

       LMMAX  5
       LM=   0 0  4 0  4 4  6 0  6 4

:CHA002: TOTAL VALENCE CHARGE INSIDE SPHERE   2 =   6.5249    (RMT=  1.9400 )
:PCS002: PARTIAL CHARGES SPHERE =  2 S,P,D,F,      D-EG,D-T2G 
:QTL002: 0.0913 3.0927 3.3183 0.0183 0.0000 0.0000 0.0000 0.8027 2.5156 0.0000 0.0000 0.0000
        Q-s-low E-s-low   Q-p-low E-p-low   Q-d-low E-d-low   Q-f-low E-f-low
:EPL002:  0.0197 -0.7032    2.9985 -3.6202    0.0343 -0.6264    0.0030 -0.6259
        Q-s-hi  E-s-hi    Q-p-hi  E-p-hi    Q-d-hi  E-d-hi    Q-f-hi  E-f-hi 
:EPH002:  0.0716  0.1880    0.0942  0.2826    3.2840  0.5017    0.0152  0.4165




:POS003: ATOM   -3 X,Y,Z = 0.50000 0.50000 0.00000  MULT= 3  ZZ=  8.000  O         

       LMMAX  6
       LM=   0 0  2 0  4 0  4 4  6 0  6 4

:CHA003: TOTAL VALENCE CHARGE INSIDE SPHERE   3 =   2.6581    (RMT=  1.6700 )
:PCS003: PARTIAL CHARGES SPHERE =  3 S,P,D,F,PZ,PXY,,D-Z2,D-XY,D-X2Y2,D-XZ,YZ 
:QTL003: 0.8125 1.8341 0.0088 0.0019 0.5547 1.2794 0.0000 0.0022 0.0006 0.0005 0.0054 0.0000
        Q-s-low E-s-low   Q-p-low E-p-low   Q-d-low E-d-low   Q-f-low E-f-low
:EPL003:  0.7968 -0.6558    0.0119 -0.6566    0.0012 -1.1892    0.0002 -2.0972
        Q-s-hi  E-s-hi    Q-p-hi  E-p-hi    Q-d-hi  E-d-hi    Q-f-hi  E-f-hi 
:EPH003:  0.0157  0.4061    1.8222  0.3748    0.0075  0.4733    0.0017  0.4360
:VZZ003: EFG INSIDE SPHERE   3 =     5.032719      UP TO R =   1.67000

:CHA  : TOTAL VALENCE CHARGE INSIDE UNIT CELL =      22.000000

:SUM  : SUM OF EIGENVALUES =         -11.152286240


        1.ATOM      La                   14 CORE STATES
:1S 001: 1S               -2841.676179561 Ry
:2S 001: 2S                -451.240854756 Ry
:2PP001: 2P*               -425.685749956 Ry
:2P 001: 2P                -395.359594875 Ry
:3S 001: 3S                 -95.514686447 Ry
:3PP001: 3P*                -84.720267963 Ry
:3P 001: 3P                 -78.812666463 Ry
:3DD001: 3D*                -59.836793925 Ry
:3D 001: 3D                 -58.571416132 Ry
:4S 001: 4S                 -18.283814796 Ry
:4PP001: 4P*                -14.312913119 Ry
:4P 001: 4P                 -13.047407730 Ry
:4DD001: 4D*                 -6.528341386 Ry
:4D 001: 4D                  -6.309006635 Ry

        2.ATOM      Co                    5 CORE STATES
:1S 002: 1S                -555.591503462 Ry
:2S 002: 2S                 -64.746854309 Ry
:2PP002: 2P*                -56.095060229 Ry
:2P 002: 2P                 -55.008137422 Ry
:3S 002: 3S                  -6.312720698 Ry

        3.ATOM      O                     1 CORE STATES
:1S 003: 1S                 -36.245889827 Ry

        1.ATOM      La                   14 CORE STATES
:1S 001: 1S               -2841.676179561 Ry
:2S 001: 2S                -451.240854756 Ry
:2PP001: 2P*               -425.685749956 Ry
:2P 001: 2P                -395.359594875 Ry
:3S 001: 3S                 -95.514686447 Ry
:3PP001: 3P*                -84.720267963 Ry
:3P 001: 3P                 -78.812666463 Ry
:3DD001: 3D*                -59.836793925 Ry
:3D 001: 3D                 -58.571416132 Ry
:4S 001: 4S                 -18.283814796 Ry
:4PP001: 4P*                -14.312913119 Ry
:4P 001: 4P                 -13.047407730 Ry
:4DD001: 4D*                 -6.528341386 Ry
:4D 001: 4D                  -6.309006635 Ry

        2.ATOM      Co                    5 CORE STATES
:1S 002: 1S                -555.591503462 Ry
:2S 002: 2S                 -64.746854309 Ry
:2PP002: 2P*                -56.095060229 Ry
:2P 002: 2P                 -55.008137422 Ry
:3S 002: 3S                  -6.312720698 Ry

        3.ATOM      O                     1 CORE STATES
:1S 003: 1S                 -36.245889827 Ry
:CINT001 Core Integral Atom   1 Up   22.999414 Dn  22.999414 Total  45.998828
:CINT002 Core Integral Atom   2 Up    5.997388 Dn   5.997388 Total  11.994775
:CINT003 Core Integral Atom   3 Up    1.000000 Dn   1.000000 Total   2.000000

       DENSITY AT NUCLEUS
        JATOM      VALENCE       SEMI-CORE          CORE           TOTAL
:RTO001:   1      500.319904        0.000000   535464.354893   535964.674796
:RTO002:   2        6.021844        0.000000    17399.222172    17405.244017
:RTO003:   3       15.043144        0.000000      299.383770      314.426914

       HYPERFINE FIELDS FOR THOMSON RADIUS
:HFF001:           -0.000           0.000           0.000           0.000 (KGAUSS)
:HFF002:           -0.000           0.000           0.000           0.000 (KGAUSS)
:HFF003:           -0.000           0.000           0.000          -0.000 (KGAUSS)
     
       CHARGES OF NEW CHARGE DENSITY
:NTO   : INTERSTITIAL     UP =     3.609304 DN =     3.609304 TOT =     7.218608
:NTO001: CHARGE SPHERE  1 UP =    26.891037 DN =    26.891037 TOT =    53.782074
:NTO002: CHARGE SPHERE  2 UP =    12.522281 DN =    12.522281 TOT =    25.044562
:NTO003: CHARGE SPHERE  3 UP =     3.658057 DN =     3.658057 TOT =     7.316115

:NEC01: NUCLEAR AND ELECTRONIC CHARGE    108.00000   107.99359
     
       CHARGES OF OLD CHARGE DENSITY
:OTO   : INTERSTITIAL     UP =     3.613238 DN =     3.613238 TOT =     7.226477
:OTO001: CHARGE SPHERE  1 UP =    26.891396 DN =    26.891396 TOT =    53.782792
:OTO002: CHARGE SPHERE  2 UP =    12.520445 DN =    12.520445 TOT =    25.040891
:OTO003: CHARGE SPHERE  3 UP =     3.658307 DN =     3.658307 TOT =     7.316613
:DNEW  1   -0.0004   -0.0004
:DNEW  2    0.0018    0.0018
:DNEW  3   -0.0002   -0.0002

:NEC02: NUCLEAR AND ELECTRONIC CHARGE    108.00000   108.00000
     
       CONVERGENCE TEST
:DTO001: DIFFERENCE SPHERE  1 UP =  0.0002104 DN =  0.0002104 TOT =  0.0004209
:DTO002: DIFFERENCE SPHERE  2 UP =  0.0023272 DN =  0.0023272 TOT =  0.0046544
:DTO003: DIFFERENCE SPHERE  3 UP =  0.0004489 DN =  0.0004489 TOT =  0.0008978

:DIS  :  CHARGE DISTANCE       ( 0.0023272 for atom    2 spin 2)      0.0031074
:BIG check (qbig,qrms,qtot)    0.776D-03   0.779D-03   0.311D-02
 
******************************************************
* MULTISECANT MIXING VER6 RELEASE 6.0 OPTIONS        *
* Standard Mode with controls                        *
* Regularization       1.000E-06                     *
* Trust Region Control Active                        *
* Max Number of Memory Steps    8                    *
******************************************************
 
:PLANE:  INTERSTITIAL TOTAL      2.74884 DISTAN  1.047E-01 % 
:CHARG:  CLM CHARGE   /ATOM     88.17042 DISTAN  2.485E-02 % 
 
 Step History DMIX, Red, Pred, Trust, FRMS, FABS
  2  2.5000E-02  1.0000E+00  1.0000E+00  1.0000E+00
  
:DIRM :  MEMORY  1/8 RESCALES  46.00
:MIX  :   PRATT  REGULARIZATION: 1.00E-06  GREED: 0.062  Expand 2.50  0.06                
     
       CHARGES OF MIXED CHARGE DENSITY
:CTO   : INTERSTITIAL     UP =     3.613177 DN =     3.613177 TOT =     7.226354
:CTO001: CHARGE SPHERE  1 UP =    26.891366 DN =    26.891366 TOT =    53.782731
:CTO002: CHARGE SPHERE  2 UP =    12.520613 DN =    12.520613 TOT =    25.041227
:CTO003: CHARGE SPHERE  3 UP =     3.658281 DN =     3.658281 TOT =     7.316563

       SPIN MAGNETIC MOMENTS OF MIXED CHARGE DENSITY
:MMINT:  MAGNETIC MOMENT IN INTERSTITIAL  =   -0.00000
:MMI001: MAGNETIC MOMENT IN SPHERE   1    =   -0.00000
:MMI002: MAGNETIC MOMENT IN SPHERE   2    =   -0.00000
:MMI003: MAGNETIC MOMENT IN SPHERE   3    =   -0.00000
:MMTOT:  SPIN MAGNETIC MOMENT IN CELL     =   -0.00000

:NEC03: NUCLEAR AND ELECTRONIC CHARGE    108.00000   108.00000

PW CHANGE     H    K    L       Current     Change     Residue
:PUP001:      0    0    0  3.49808834E-02  6.978E-07  9.516E-06
:PUP002:     -1    0    0  1.25114405E-02  1.494E-06  1.940E-05
:PUP003:     -1   -1    0  4.48024211E-02  6.746E-06  8.707E-05
:PUP004:     -1   -1   -1  7.46024570E-02  3.564E-06  4.748E-05
:PUP005:     -2    0    0  4.32543315E-02  2.724E-06  3.578E-05
:PUP006:     -2   -1    0  1.12913312E-02  5.632E-06  7.342E-05
:PUP007:     -2   -1   -1  6.55315443E-03  3.001E-06  3.859E-05
:PUP008:     -2   -2    0  1.49249274E-02  2.644E-06  3.474E-05
:PUP009:     -3    0    0  1.66709850E-03 -5.805E-07 -7.518E-06
:PUP010:     -2   -2   -1  3.80611673E-03  5.942E-06  7.688E-05
:PUP011:     -3   -1    0 -7.53832097E-03  5.432E-06  7.066E-05
:PUP012:     -3   -1   -1  9.86065439E-03  3.746E-06  4.845E-05
:PDN001:      0    0    0  3.49808834E-02  6.978E-07  9.516E-06
:PDN002:     -1    0    0  1.25114405E-02  1.494E-06  1.940E-05
:PDN003:     -1   -1    0  4.48024211E-02  6.746E-06  8.707E-05
:PDN004:     -1   -1   -1  7.46024570E-02  3.564E-06  4.748E-05
:PDN005:     -2    0    0  4.32543315E-02  2.724E-06  3.578E-05
:PDN006:     -2   -1    0  1.12913312E-02  5.632E-06  7.342E-05
:PDN007:     -2   -1   -1  6.55315443E-03  3.001E-06  3.859E-05
:PDN008:     -2   -2    0  1.49249274E-02  2.644E-06  3.474E-05
:PDN009:     -3    0    0  1.66709850E-03 -5.805E-07 -7.518E-06
:PDN010:     -2   -2   -1  3.80611673E-03  5.942E-06  7.688E-05
:PDN011:     -3   -1    0 -7.53832097E-03  5.432E-06  7.066E-05
:PDN012:     -3   -1   -1  9.86065440E-03  3.746E-06  4.845E-05

:ENE  : ********** TOTAL ENERGY IN Ry =       -20214.03297587



            ---------
:ITE030: 30. ITERATION
            ---------

:NATO :    3 INDEPENDENT AND    5 TOTAL ATOMS IN UNITCELL
       SUBSTANCE: laco3                                                       

       LATTICE                      = P   
:POT  : POTENTIAL OPTION    5
:LAT  : LATTICE CONSTANTS=  7.26209  7.26209  7.26209    1.571    1.571    1.571
:VOL  : UNIT CELL VOLUME =     382.98775
       MODE OF CALCULATION IS       = RELA
       SPINPOLARIZED CALCULATION
:IFFT  : FFT-parameters:   60   60   60 Factor: 2.00
       ATOMNUMBER=  1 La         VCOUL-ZERO =  0.32767E+00
       ATOMNUMBER=  2 Co         VCOUL-ZERO =  0.38547E+00
       ATOMNUMBER=  3 O          VCOUL-ZERO =  0.68225E+00
:EFG003:                        EFG         =    11.00228   *10**21  V / m**2
                               V20  TOT/SRF=     9.52826     0.69476
                               V22  TOT/SRF=     0.00000     0.00000
                               V22M TOT/SRF=     0.00000     0.00000
                               V21  TOT/SRF=     0.00000     0.00000
                               V21M TOT/SRF=     0.00000     0.00000

             -5.50114    0.00000    0.00000       -5.50114    0.00000    0.00000
              0.00000   -5.50114    0.00000        0.00000   -5.50114    0.00000
              0.00000    0.00000   11.00228        0.00000    0.00000   11.00228

         MAIN DIRECTIONS OF THE EFG   1.0000  0.0000  0.0000
                                      0.0000  1.0000  0.0000
                                      0.0000  0.0000  1.0000
:ANG003:  ANGLE WITH OLD X-AXIS =         0.0

:ETA003:                         ASYMM. ETA =     0.00000


:FIT001: LUSE= 13 SIGMA OF V-XC FIT FOR ATOM  1  0.3130176E-03
:FIT001: LUSE= 13 SIGMA OF V-XC FIT FOR ATOM  1  0.3130176E-03
:FIT002: LUSE= 13 SIGMA OF V-XC FIT FOR ATOM  2  0.3589736E-02
:FIT002: LUSE= 13 SIGMA OF V-XC FIT FOR ATOM  2  0.3589736E-02
:FIT003: LUSE= 13 SIGMA OF V-XC FIT FOR ATOM  3  0.1948819E-03
:FIT003: LUSE= 13 SIGMA OF V-XC FIT FOR ATOM  3  0.1948819E-03
:DEN  : DENSITY INTEGRAL  =         -7922.24634402   (Ry)
       ELS_POTENTIAL_AT Z=0 and Z=0.5:   0.00000   0.00000
       ELS_POTENTIAL_AT Y=0 and Y=0.5:   0.00000   0.00000
:VZERO:v0,v0c,v0x  -0.85433   0.00000  -0.85433 v5,v5c,v5x  -0.85433   0.00000  -0.85433
:VZERY:v0,v0c,v0x  -0.85433   0.00000  -0.85433 v5,v5c,v5x  -0.85433   0.00000  -0.85433
:VZERX:v0,v0c,v0x  -4.27029  -3.14725  -1.12303 v5,v5c,v5x  -2.41568  -1.36025  -1.05543

          ATOMIC SPHERE DEPENDENT PARAMETERS FOR ATOM  La        
:e__0001: OVERALL ENERGY PARAMETER IS    0.4386
          OVERALL BASIS SET ON ATOM IS LAPW
:E0_0001: E( 0)=   -1.7188   E(BOTTOM)=   -2.190   E(TOP)=   -1.247  4  5   183
             APW+lo
:E0_0001: E( 0)=    0.8386
             LOCAL ORBITAL
:E1_0001: E( 1)=   -0.4188   E(BOTTOM)=   -1.161   E(TOP)=    0.324  3  4   186
             APW+lo
:E1_0001: E( 1)=    0.8386
             LOCAL ORBITAL
:E2_0001: E( 2)=    0.4386   E(BOTTOM)=    0.365   E(TOP)= -200.000  2 -1    84
             APW+lo

          ATOMIC SPHERE DEPENDENT PARAMETERS FOR ATOM  Co        
:e__0002: OVERALL ENERGY PARAMETER IS    0.4386
          OVERALL BASIS SET ON ATOM IS LAPW
:E1_0002: E( 1)=    0.4386
             APW+lo
:E1_0002: E( 1)=   -3.6774   E(BOTTOM)=   -3.833   E(TOP)=   -3.522  1  2   143
             LOCAL ORBITAL
:E2_0002: E( 2)=    0.4927   E(BOTTOM)=    0.036   E(TOP)=    0.950  0  1   148
             APW+lo
:E0_0002: E( 0)=    0.4386
             APW+lo

          ATOMIC SPHERE DEPENDENT PARAMETERS FOR ATOM  O         
:e__0003: OVERALL ENERGY PARAMETER IS    0.4386
          OVERALL BASIS SET ON ATOM IS LAPW
:E0_0003: E( 0)=   -0.5604   E(BOTTOM)=   -1.731   E(TOP)=    0.610  1  2   223
             APW+lo
:E0_0003: E( 0)=    0.8386
             LOCAL ORBITAL
:E1_0003: E( 1)=    0.4386
             APW+lo

       K=   0.04545   0.04545   0.04545            1
:RKM  : MATRIX SIZE  324LOs:  40  RKM= 5.97  WEIGHT= 8.00  PGR:    
       EIGENVALUES ARE:
:EIG00001:      -3.6430027   -3.6429911   -3.6429911   -1.6846962   -0.7450959
:EIG00006:      -0.6340559   -0.6340559   -0.4698668   -0.4698668   -0.4671908
:EIG00011:       0.2715527    0.2780412    0.2780412    0.4255469    0.4255469
:EIG00016:       0.4408776    0.4991171    0.5129675    0.5129675    0.5328232
:EIG00021:       0.5328232    0.5375737    0.6051487    0.6051487    0.8130343
:EIG00026:       0.8130343    0.8868687    0.9028874    0.9045305    0.9045305
:EIG00031:       0.9185038    0.9185038    0.9196533    1.0379519    1.0393297
:EIG00036:       1.0393297    1.0812814    1.3885582    1.8594217    1.8594217
:EIG00041:       1.8674121    1.9960185    2.0280745    2.0280745
       ********************************************************

:KPT   :      NUMBER OF K-POINTS:    56

          ATOMIC SPHERE DEPENDENT PARAMETERS FOR ATOM  La        
:e__0001: OVERALL ENERGY PARAMETER IS    0.4386
          OVERALL BASIS SET ON ATOM IS LAPW
:E0_0001: E( 0)=   -1.7188   E(BOTTOM)=   -2.190   E(TOP)=   -1.247  4  5   183
             APW+lo
:E0_0001: E( 0)=    0.8386
             LOCAL ORBITAL
:E1_0001: E( 1)=   -0.4188   E(BOTTOM)=   -1.161   E(TOP)=    0.324  3  4   186
             APW+lo
:E1_0001: E( 1)=    0.8386
             LOCAL ORBITAL
:E2_0001: E( 2)=    0.4386   E(BOTTOM)=    0.365   E(TOP)= -200.000  2 -1    84
             APW+lo

          ATOMIC SPHERE DEPENDENT PARAMETERS FOR ATOM  Co        
:e__0002: OVERALL ENERGY PARAMETER IS    0.4386
          OVERALL BASIS SET ON ATOM IS LAPW
:E1_0002: E( 1)=    0.4386
             APW+lo
:E1_0002: E( 1)=   -3.6774   E(BOTTOM)=   -3.833   E(TOP)=   -3.522  1  2   143
             LOCAL ORBITAL
:E2_0002: E( 2)=    0.4927   E(BOTTOM)=    0.036   E(TOP)=    0.950  0  1   148
             APW+lo
:E0_0002: E( 0)=    0.4386
             APW+lo

          ATOMIC SPHERE DEPENDENT PARAMETERS FOR ATOM  O         
:e__0003: OVERALL ENERGY PARAMETER IS    0.4386
          OVERALL BASIS SET ON ATOM IS LAPW
:E0_0003: E( 0)=   -0.5604   E(BOTTOM)=   -1.731   E(TOP)=    0.610  1  2   223
             APW+lo
:E0_0003: E( 0)=    0.8386
             LOCAL ORBITAL
:E1_0003: E( 1)=    0.4386
             APW+lo

       K=   0.04545   0.04545   0.04545            1
:RKM  : MATRIX SIZE  324LOs:  40  RKM= 5.97  WEIGHT= 8.00  PGR:    
       EIGENVALUES ARE:
:EIG00001:      -3.6430027   -3.6429911   -3.6429911   -1.6846962   -0.7450959
:EIG00006:      -0.6340559   -0.6340559   -0.4698668   -0.4698668   -0.4671908
:EIG00011:       0.2715527    0.2780412    0.2780412    0.4255469    0.4255469
:EIG00016:       0.4408776    0.4991171    0.5129675    0.5129675    0.5328232
:EIG00021:       0.5328232    0.5375737    0.6051487    0.6051487    0.8130343
:EIG00026:       0.8130343    0.8868687    0.9028874    0.9045305    0.9045305
:EIG00031:       0.9185038    0.9185038    0.9196533    1.0379519    1.0393297
:EIG00036:       1.0393297    1.0812814    1.3885582    1.8594217    1.8594217
:EIG00041:       1.8674121    1.9960185    2.0280745    2.0280745
       ********************************************************

:KPT   :      NUMBER OF K-POINTS:    56
:GAP  : -99999.   Ry = -9999.    eV  ( metallic )
         Bandranges (emin - emax) and occupancy:
:BAN00014:  14    0.255944    0.425547  1.00000000
:BAN00015:  15    0.299410    0.425547  1.00000000
:BAN00016:  16    0.302717    0.442361  1.00000000
:BAN00017:  17    0.391153    0.535683  1.00000000
:BAN00018:  18    0.434339    0.535683  1.00000000
:BAN00019:  19    0.445073    0.535683  1.00000000
:BAN00020:  20    0.532400    0.658789  0.94094299
:BAN00021:  21    0.532823    0.658789  0.92533035
:BAN00022:  22    0.537574    0.658789  0.90834537
:BAN00023:  23    0.605149    0.875683  0.21558173
:BAN00024:  24    0.605149    0.875683  0.00979955
:BAN00025:  25    0.813034    0.876067  0.00000000
:BAN00026:  26    0.813034    0.886048  0.00000000
:BAN00027:  27    0.876067    0.887187  0.00000000
:BAN00028:  28    0.886578    0.902887  0.00000000
:BAN00029:  29    0.889039    0.912066  0.00000000
        Energy to separate low and high energystates:    0.03284


:NOE  : NUMBER OF ELECTRONS          =  44.000

:FER  : F E R M I - ENERGY(TETRAH.M.)=   0.6389053258
:GMA  : POTENTIAL AND CHARGE CUT-OFF  12.00 Ry**.5




:POS001: ATOM    1 X,Y,Z = 0.00000 0.00000 0.00000  MULT= 1  ZZ= 57.000  La        

       LMMAX  5
       LM=   0 0  4 0  4 4  6 0  6 4

:CHA001: TOTAL VALENCE CHARGE INSIDE SPHERE   1 =   3.8917    (RMT=  2.5000 )
:PCS001: PARTIAL CHARGES SPHERE =  1 S,P,D,F,      D-EG,D-T2G 
:QTL001: 0.9725 2.6558 0.1783 0.0809 0.0000 0.0000 0.0000 0.0663 0.1121 0.0000 0.0000 0.0000
        Q-s-low E-s-low   Q-p-low E-p-low   Q-d-low E-d-low   Q-f-low E-f-low
:EPL001:  0.9498 -1.6705    2.5203 -0.4741    0.0064 -0.6387    0.0021 -0.6151
        Q-s-hi  E-s-hi    Q-p-hi  E-p-hi    Q-d-hi  E-d-hi    Q-f-hi  E-f-hi 
:EPH001:  0.0227  0.3256    0.1355  0.3579    0.1719  0.3947    0.0788  0.4572




:POS002: ATOM    2 X,Y,Z = 0.50000 0.50000 0.50000  MULT= 1  ZZ= 27.000  Co        

       LMMAX  5
       LM=   0 0  4 0  4 4  6 0  6 4

:CHA002: TOTAL VALENCE CHARGE INSIDE SPHERE   2 =   6.5238    (RMT=  1.9400 )
:PCS002: PARTIAL CHARGES SPHERE =  2 S,P,D,F,      D-EG,D-T2G 
:QTL002: 0.0913 3.0926 3.3172 0.0183 0.0000 0.0000 0.0000 0.8017 2.5156 0.0000 0.0000 0.0000
        Q-s-low E-s-low   Q-p-low E-p-low   Q-d-low E-d-low   Q-f-low E-f-low
:EPL002:  0.0197 -0.7032    2.9985 -3.6198    0.0342 -0.6264    0.0030 -0.6259
        Q-s-hi  E-s-hi    Q-p-hi  E-p-hi    Q-d-hi  E-d-hi    Q-f-hi  E-f-hi 
:EPH002:  0.0716  0.1881    0.0942  0.2827    3.2830  0.5020    0.0152  0.4166




:POS003: ATOM   -3 X,Y,Z = 0.50000 0.50000 0.00000  MULT= 3  ZZ=  8.000  O         

       LMMAX  6
       LM=   0 0  2 0  4 0  4 4  6 0  6 4

:CHA003: TOTAL VALENCE CHARGE INSIDE SPHERE   3 =   2.6583    (RMT=  1.6700 )
:PCS003: PARTIAL CHARGES SPHERE =  3 S,P,D,F,PZ,PXY,,D-Z2,D-XY,D-X2Y2,D-XZ,YZ 
:QTL003: 0.8125 1.8343 0.0088 0.0019 0.5548 1.2795 0.0000 0.0021 0.0006 0.0005 0.0054 0.0000
        Q-s-low E-s-low   Q-p-low E-p-low   Q-d-low E-d-low   Q-f-low E-f-low
:EPL003:  0.7968 -0.6558    0.0119 -0.6567    0.0012 -1.1894    0.0002 -2.0971
        Q-s-hi  E-s-hi    Q-p-hi  E-p-hi    Q-d-hi  E-d-hi    Q-f-hi  E-f-hi 
:EPH003:  0.0157  0.4061    1.8224  0.3748    0.0076  0.4736    0.0017  0.4363
:VZZ003: EFG INSIDE SPHERE   3 =     5.026371      UP TO R =   1.67000

:CHA  : TOTAL VALENCE CHARGE INSIDE UNIT CELL =      22.000000

:SUM  : SUM OF EIGENVALUES =         -11.149719342

:GAP  : -99999.   Ry = -9999.    eV  ( metallic )
         Bandranges (emin - emax) and occupancy:
:BAN00014:  14    0.255944    0.425547  1.00000000
:BAN00015:  15    0.299410    0.425547  1.00000000
:BAN00016:  16    0.302717    0.442361  1.00000000
:BAN00017:  17    0.391153    0.535683  1.00000000
:BAN00018:  18    0.434339    0.535683  1.00000000
:BAN00019:  19    0.445073    0.535683  1.00000000
:BAN00020:  20    0.532400    0.658789  0.94094299
:BAN00021:  21    0.532823    0.658789  0.92533036
:BAN00022:  22    0.537574    0.658789  0.90834537
:BAN00023:  23    0.605149    0.875683  0.21558173
:BAN00024:  24    0.605149    0.875683  0.00979955
:BAN00025:  25    0.813034    0.876067  0.00000000
:BAN00026:  26    0.813034    0.886048  0.00000000
:BAN00027:  27    0.876067    0.887187  0.00000000
:BAN00028:  28    0.886578    0.902887  0.00000000
:BAN00029:  29    0.889039    0.912066  0.00000000
        Energy to separate low and high energystates:    0.03284


:NOE  : NUMBER OF ELECTRONS          =  44.000

:FER  : F E R M I - ENERGY(TETRAH.M.)=   0.6389053258
:GMA  : POTENTIAL AND CHARGE CUT-OFF  12.00 Ry**.5




:POS001: ATOM    1 X,Y,Z = 0.00000 0.00000 0.00000  MULT= 1  ZZ= 57.000  La        

       LMMAX  5
       LM=   0 0  4 0  4 4  6 0  6 4

:CHA001: TOTAL VALENCE CHARGE INSIDE SPHERE   1 =   3.8917    (RMT=  2.5000 )
:PCS001: PARTIAL CHARGES SPHERE =  1 S,P,D,F,      D-EG,D-T2G 
:QTL001: 0.9725 2.6558 0.1783 0.0809 0.0000 0.0000 0.0000 0.0663 0.1121 0.0000 0.0000 0.0000
        Q-s-low E-s-low   Q-p-low E-p-low   Q-d-low E-d-low   Q-f-low E-f-low
:EPL001:  0.9498 -1.6705    2.5203 -0.4741    0.0064 -0.6387    0.0021 -0.6151
        Q-s-hi  E-s-hi    Q-p-hi  E-p-hi    Q-d-hi  E-d-hi    Q-f-hi  E-f-hi 
:EPH001:  0.0227  0.3256    0.1355  0.3579    0.1719  0.3947    0.0788  0.4572




:POS002: ATOM    2 X,Y,Z = 0.50000 0.50000 0.50000  MULT= 1  ZZ= 27.000  Co        

       LMMAX  5
       LM=   0 0  4 0  4 4  6 0  6 4

:CHA002: TOTAL VALENCE CHARGE INSIDE SPHERE   2 =   6.5238    (RMT=  1.9400 )
:PCS002: PARTIAL CHARGES SPHERE =  2 S,P,D,F,      D-EG,D-T2G 
:QTL002: 0.0913 3.0926 3.3172 0.0183 0.0000 0.0000 0.0000 0.8017 2.5156 0.0000 0.0000 0.0000
        Q-s-low E-s-low   Q-p-low E-p-low   Q-d-low E-d-low   Q-f-low E-f-low
:EPL002:  0.0197 -0.7032    2.9985 -3.6198    0.0342 -0.6264    0.0030 -0.6259
        Q-s-hi  E-s-hi    Q-p-hi  E-p-hi    Q-d-hi  E-d-hi    Q-f-hi  E-f-hi 
:EPH002:  0.0716  0.1881    0.0942  0.2827    3.2830  0.5020    0.0152  0.4166




:POS003: ATOM   -3 X,Y,Z = 0.50000 0.50000 0.00000  MULT= 3  ZZ=  8.000  O         

       LMMAX  6
       LM=   0 0  2 0  4 0  4 4  6 0  6 4

:CHA003: TOTAL VALENCE CHARGE INSIDE SPHERE   3 =   2.6583    (RMT=  1.6700 )
:PCS003: PARTIAL CHARGES SPHERE =  3 S,P,D,F,PZ,PXY,,D-Z2,D-XY,D-X2Y2,D-XZ,YZ 
:QTL003: 0.8125 1.8343 0.0088 0.0019 0.5548 1.2795 0.0000 0.0021 0.0006 0.0005 0.0054 0.0000
        Q-s-low E-s-low   Q-p-low E-p-low   Q-d-low E-d-low   Q-f-low E-f-low
:EPL003:  0.7968 -0.6558    0.0119 -0.6567    0.0012 -1.1894    0.0002 -2.0971
        Q-s-hi  E-s-hi    Q-p-hi  E-p-hi    Q-d-hi  E-d-hi    Q-f-hi  E-f-hi 
:EPH003:  0.0157  0.4061    1.8224  0.3748    0.0076  0.4736    0.0017  0.4363
:VZZ003: EFG INSIDE SPHERE   3 =     5.026371      UP TO R =   1.67000

:CHA  : TOTAL VALENCE CHARGE INSIDE UNIT CELL =      22.000000

:SUM  : SUM OF EIGENVALUES =         -11.149719341


        1.ATOM      La                   14 CORE STATES
:1S 001: 1S               -2841.676282327 Ry
:2S 001: 2S                -451.240954673 Ry
:2PP001: 2P*               -425.685850438 Ry
:2P 001: 2P                -395.359695157 Ry
:3S 001: 3S                 -95.514781677 Ry
:3PP001: 3P*                -84.720363456 Ry
:3P 001: 3P                 -78.812761668 Ry
:3DD001: 3D*                -59.836889810 Ry
:3D 001: 3D                 -58.571511924 Ry
:4S 001: 4S                 -18.283901772 Ry
:4PP001: 4P*                -14.312999659 Ry
:4P 001: 4P                 -13.047493671 Ry
:4DD001: 4D*                 -6.528425995 Ry
:4D 001: 4D                  -6.309091029 Ry

        2.ATOM      Co                    5 CORE STATES
:1S 002: 1S                -555.590756739 Ry
:2S 002: 2S                 -64.746140162 Ry
:2PP002: 2P*                -56.094338184 Ry
:2P 002: 2P                 -55.007416171 Ry
:3S 002: 3S                  -6.312226496 Ry

        3.ATOM      O                     1 CORE STATES
:1S 003: 1S                 -36.245941060 Ry

        1.ATOM      La                   14 CORE STATES
:1S 001: 1S               -2841.676282327 Ry
:2S 001: 2S                -451.240954673 Ry
:2PP001: 2P*               -425.685850438 Ry
:2P 001: 2P                -395.359695157 Ry
:3S 001: 3S                 -95.514781677 Ry
:3PP001: 3P*                -84.720363456 Ry
:3P 001: 3P                 -78.812761668 Ry
:3DD001: 3D*                -59.836889810 Ry
:3D 001: 3D                 -58.571511924 Ry
:4S 001: 4S                 -18.283901772 Ry
:4PP001: 4P*                -14.312999659 Ry
:4P 001: 4P                 -13.047493671 Ry
:4DD001: 4D*                 -6.528425995 Ry
:4D 001: 4D                  -6.309091029 Ry

        2.ATOM      Co                    5 CORE STATES
:1S 002: 1S                -555.590756739 Ry
:2S 002: 2S                 -64.746140162 Ry
:2PP002: 2P*                -56.094338184 Ry
:2P 002: 2P                 -55.007416171 Ry
:3S 002: 3S                  -6.312226496 Ry

        3.ATOM      O                     1 CORE STATES
:1S 003: 1S                 -36.245941060 Ry
:CINT001 Core Integral Atom   1 Up   22.999414 Dn  22.999414 Total  45.998828
:CINT002 Core Integral Atom   2 Up    5.997387 Dn   5.997387 Total  11.994774
:CINT003 Core Integral Atom   3 Up    1.000000 Dn   1.000000 Total   2.000000

       DENSITY AT NUCLEUS
        JATOM      VALENCE       SEMI-CORE          CORE           TOTAL
:RTO001:   1      500.322934        0.000000   535464.356805   535964.679739
:RTO002:   2        6.021026        0.000000    17399.216786    17405.237812
:RTO003:   3       15.043216        0.000000      299.383779      314.426995

       HYPERFINE FIELDS FOR THOMSON RADIUS
:HFF001:           -0.000           0.000           0.000          -0.000 (KGAUSS)
:HFF002:           -0.000           0.000           0.000           0.000 (KGAUSS)
:HFF003:           -0.000           0.000           0.000          -0.000 (KGAUSS)
     
       CHARGES OF NEW CHARGE DENSITY
:NTO   : INTERSTITIAL     UP =     3.609516 DN =     3.609516 TOT =     7.219032
:NTO001: CHARGE SPHERE  1 UP =    26.891145 DN =    26.891145 TOT =    53.782290
:NTO002: CHARGE SPHERE  2 UP =    12.521232 DN =    12.521232 TOT =    25.042464
:NTO003: CHARGE SPHERE  3 UP =     3.658300 DN =     3.658300 TOT =     7.316600

:NEC01: NUCLEAR AND ELECTRONIC CHARGE    108.00000   107.99359
     
       CHARGES OF OLD CHARGE DENSITY
:OTO   : INTERSTITIAL     UP =     3.613177 DN =     3.613177 TOT =     7.226354
:OTO001: CHARGE SPHERE  1 UP =    26.891366 DN =    26.891366 TOT =    53.782731
:OTO002: CHARGE SPHERE  2 UP =    12.520613 DN =    12.520613 TOT =    25.041227
:OTO003: CHARGE SPHERE  3 UP =     3.658281 DN =     3.658281 TOT =     7.316563
:DNEW  1   -0.0002   -0.0002
:DNEW  2    0.0006    0.0006
:DNEW  3    0.0000    0.0000

:NEC02: NUCLEAR AND ELECTRONIC CHARGE    108.00000   108.00000
     
       CONVERGENCE TEST
:DTO001: DIFFERENCE SPHERE  1 UP =  0.0001284 DN =  0.0001284 TOT =  0.0002567
:DTO002: DIFFERENCE SPHERE  2 UP =  0.0005076 DN =  0.0005076 TOT =  0.0010152
:DTO003: DIFFERENCE SPHERE  3 UP =  0.0002975 DN =  0.0002975 TOT =  0.0005950

:DIS  :  CHARGE DISTANCE       ( 0.0005076 for atom    2 spin 2)      0.0012227
:BIG check (qbig,qrms,qtot)    0.169D-03   0.232D-03   0.122D-02
 
******************************************************
* MULTISECANT MIXING VER6 RELEASE 6.0 OPTIONS        *
* Standard Mode with controls                        *
* Regularization       1.000E-06                     *
* Trust Region Control Active                        *
* Max Number of Memory Steps    8                    *
******************************************************
 
:PLANE:  INTERSTITIAL TOTAL      2.74896 DISTAN  9.699E-02 % 
:CHARG:  CLM CHARGE   /ATOM     88.17043 DISTAN  2.202E-02 % 
 
 Step History DMIX, Red, Pred, Trust, FRMS, FABS
  2  2.5000E-02  1.0000E+00  1.0000E+00  1.0000E+00
  3  6.2500E-02  1.0000E+00  1.0000E+00  1.0000E+00
  
:NORMS:  Nuclear, Spectral, Froebius, Shanno-Pua   0.1478E+01  0.1478E+01  0.1478E+01  0.5739E+00
:INFO :  Number of Memory Steps    2 Skipping    0
:INFO :  SLambda=    1.4779012  Max    1.4779012

Eigenvalues, unscaled except for SY+YY
   #     SY Real        SY Imag          SS             YY         SY+YY Real      SY+YY Imag
   1   2.220446E-16   0.000000E+00  -1.665335E-16   2.000000E+00   1.090785E-07   0.000000E+00
   2   1.147883E+00   0.000000E+00   9.160952E-01   1.075581E-07   3.696458E+00   0.000000E+00
 
:INFO :  Increased using Multisecant Shanno-Phua
:INFO :  Singular value   3.696E+00 Weight  1.0000E+00 Projections   1.297E-01  5.752E-02
:INFO :  Singular value   1.091E-07 Weight  2.9657E-03 Projections  -2.110E-01 -2.409E-01
 
:DIRM :  MEMORY 2/8 RESCALE  45.22 RED 0.906 PRED 1.000 NEXT 0.627
:INFO :  Blimit    1.539E+00  1.000E+00  6.544E-01  2.618E+00
:DIRP :  |MSR1|= 4.075E-02 |PRATT|= 6.028E-02 ANGLE=   0.1 DEGREES
:DIRQ :  |MSR1|= 3.941E-02 |PRATT|= 5.824E-02 ANGLE=   0.1 DEGREES
:DIR  :  |MSR1|= 5.669E-02 |PRATT|= 8.382E-02 ANGLE=   0.1 DEGREES
:MIX  :   MSE1   REGULARIZATION: 2.00E-06  GREED: 0.098  Newton 1.00  0.68                
     
       CHARGES OF MIXED CHARGE DENSITY
:CTO   : INTERSTITIAL     UP =     3.612866 DN =     3.612866 TOT =     7.225733
:CTO001: CHARGE SPHERE  1 UP =    26.891215 DN =    26.891215 TOT =    53.782430
:CTO002: CHARGE SPHERE  2 UP =    12.521048 DN =    12.521048 TOT =    25.042096
:CTO003: CHARGE SPHERE  3 UP =     3.658290 DN =     3.658290 TOT =     7.316580

       SPIN MAGNETIC MOMENTS OF MIXED CHARGE DENSITY
:MMINT:  MAGNETIC MOMENT IN INTERSTITIAL  =   -0.00000
:MMI001: MAGNETIC MOMENT IN SPHERE   1    =   -0.00000
:MMI002: MAGNETIC MOMENT IN SPHERE   2    =   -0.00000
:MMI003: MAGNETIC MOMENT IN SPHERE   3    =   -0.00000
:MMTOT:  SPIN MAGNETIC MOMENT IN CELL     =   -0.00000

:NEC03: NUCLEAR AND ELECTRONIC CHARGE    108.00000   108.00000

PW CHANGE     H    K    L       Current     Change     Residue
:PUP001:      0    0    0  3.49877218E-02  6.838E-06  1.015E-05
:PUP002:     -1    0    0  1.25235000E-02  1.206E-05  1.783E-05
:PUP003:     -1   -1    0  4.48554983E-02  5.308E-05  7.845E-05
:PUP004:     -1   -1   -1  7.46344048E-02  3.195E-05  4.735E-05
:PUP005:     -2    0    0  4.32773757E-02  2.304E-05  3.412E-05
:PUP006:     -2   -1    0  1.13375813E-02  4.625E-05  6.841E-05
:PUP007:     -2   -1   -1  6.57638445E-03  2.323E-05  3.432E-05
:PUP008:     -2   -2    0  1.49473300E-02  2.240E-05  3.317E-05
:PUP009:     -3    0    0  1.66246818E-03 -4.630E-06 -6.848E-06
:PUP010:     -2   -2   -1  3.85336833E-03  4.725E-05  6.986E-05
:PUP011:     -3   -1    0 -7.49412403E-03  4.420E-05  6.537E-05
:PUP012:     -3   -1   -1  9.89035423E-03  2.970E-05  4.392E-05
:PDN001:      0    0    0  3.49877218E-02  6.838E-06  1.015E-05
:PDN002:     -1    0    0  1.25235000E-02  1.206E-05  1.783E-05
:PDN003:     -1   -1    0  4.48554984E-02  5.308E-05  7.845E-05
:PDN004:     -1   -1   -1  7.46344048E-02  3.195E-05  4.735E-05
:PDN005:     -2    0    0  4.32773757E-02  2.304E-05  3.412E-05
:PDN006:     -2   -1    0  1.13375813E-02  4.625E-05  6.841E-05
:PDN007:     -2   -1   -1  6.57638447E-03  2.323E-05  3.432E-05
:PDN008:     -2   -2    0  1.49473300E-02  2.240E-05  3.317E-05
:PDN009:     -3    0    0  1.66246818E-03 -4.630E-06 -6.848E-06
:PDN010:     -2   -2   -1  3.85336834E-03  4.725E-05  6.986E-05
:PDN011:     -3   -1    0 -7.49412402E-03  4.420E-05  6.537E-05
:PDN012:     -3   -1   -1  9.89035424E-03  2.970E-05  4.392E-05

:ENE  : ********** TOTAL ENERGY IN Ry =       -20214.03296783



            ---------
:ITE031: 31. ITERATION
            ---------

:NATO :    3 INDEPENDENT AND    5 TOTAL ATOMS IN UNITCELL
       SUBSTANCE: laco3                                                       

       LATTICE                      = P   
:POT  : POTENTIAL OPTION    5
:LAT  : LATTICE CONSTANTS=  7.26209  7.26209  7.26209    1.571    1.571    1.571
:VOL  : UNIT CELL VOLUME =     382.98775
       MODE OF CALCULATION IS       = RELA
       SPINPOLARIZED CALCULATION
:IFFT  : FFT-parameters:   60   60   60 Factor: 2.00
       ATOMNUMBER=  1 La         VCOUL-ZERO =  0.32745E+00
       ATOMNUMBER=  2 Co         VCOUL-ZERO =  0.38610E+00
       ATOMNUMBER=  3 O          VCOUL-ZERO =  0.68244E+00
:EFG003:                        EFG         =    10.91893   *10**21  V / m**2
                               V20  TOT/SRF=     9.45607     0.69224
                               V22  TOT/SRF=     0.00000     0.00000
                               V22M TOT/SRF=     0.00000     0.00000
                               V21  TOT/SRF=     0.00000     0.00000
                               V21M TOT/SRF=     0.00000     0.00000

             -5.45947    0.00000    0.00000       -5.45947    0.00000    0.00000
              0.00000   -5.45947    0.00000        0.00000   -5.45947    0.00000
              0.00000    0.00000   10.91893        0.00000    0.00000   10.91893

         MAIN DIRECTIONS OF THE EFG   1.0000  0.0000  0.0000
                                      0.0000  1.0000  0.0000
                                      0.0000  0.0000  1.0000
:ANG003:  ANGLE WITH OLD X-AXIS =         0.0

:ETA003:                         ASYMM. ETA =     0.00000


:FIT001: LUSE= 13 SIGMA OF V-XC FIT FOR ATOM  1  0.3132993E-03
:FIT001: LUSE= 13 SIGMA OF V-XC FIT FOR ATOM  1  0.3132993E-03
:FIT002: LUSE= 13 SIGMA OF V-XC FIT FOR ATOM  2  0.3606122E-02
:FIT002: LUSE= 13 SIGMA OF V-XC FIT FOR ATOM  2  0.3606122E-02
:FIT003: LUSE= 13 SIGMA OF V-XC FIT FOR ATOM  3  0.1962398E-03
:FIT003: LUSE= 13 SIGMA OF V-XC FIT FOR ATOM  3  0.1962398E-03
:DEN  : DENSITY INTEGRAL  =         -7922.26279000   (Ry)
       ELS_POTENTIAL_AT Z=0 and Z=0.5:   0.00000   0.00000
       ELS_POTENTIAL_AT Y=0 and Y=0.5:   0.00000   0.00000
:VZERO:v0,v0c,v0x  -0.85435   0.00000  -0.85435 v5,v5c,v5x  -0.85435   0.00000  -0.85435
:VZERY:v0,v0c,v0x  -0.85435   0.00000  -0.85435 v5,v5c,v5x  -0.85435   0.00000  -0.85435
:VZERX:v0,v0c,v0x  -4.27143  -3.14837  -1.12306 v5,v5c,v5x  -2.41463  -1.35898  -1.05565

          ATOMIC SPHERE DEPENDENT PARAMETERS FOR ATOM  La        
:e__0001: OVERALL ENERGY PARAMETER IS    0.4389
          OVERALL BASIS SET ON ATOM IS LAPW
:E0_0001: E( 0)=   -1.7191   E(BOTTOM)=   -2.191   E(TOP)=   -1.248  4  5   187
             APW+lo
:E0_0001: E( 0)=    0.8389
             LOCAL ORBITAL
:E1_0001: E( 1)=   -0.4190   E(BOTTOM)=   -1.162   E(TOP)=    0.324  3  4   185
             APW+lo
:E1_0001: E( 1)=    0.8389
             LOCAL ORBITAL
:E2_0001: E( 2)=    0.4389   E(BOTTOM)=    0.365   E(TOP)= -200.000  2 -1    81
             APW+lo

          ATOMIC SPHERE DEPENDENT PARAMETERS FOR ATOM  Co        
:e__0002: OVERALL ENERGY PARAMETER IS    0.4389
          OVERALL BASIS SET ON ATOM IS LAPW
:E1_0002: E( 1)=    0.4389
             APW+lo
:E1_0002: E( 1)=   -3.6762   E(BOTTOM)=   -3.832   E(TOP)=   -3.521  1  2   148
             LOCAL ORBITAL
:E2_0002: E( 2)=    0.4938   E(BOTTOM)=    0.037   E(TOP)=    0.951  0  1   150
             APW+lo
:E0_0002: E( 0)=    0.4389
             APW+lo

          ATOMIC SPHERE DEPENDENT PARAMETERS FOR ATOM  O         
:e__0003: OVERALL ENERGY PARAMETER IS    0.4389
          OVERALL BASIS SET ON ATOM IS LAPW
:E0_0003: E( 0)=   -0.5602   E(BOTTOM)=   -1.730   E(TOP)=    0.610  1  2   222
             APW+lo
:E0_0003: E( 0)=    0.8389
             LOCAL ORBITAL
:E1_0003: E( 1)=    0.4389
             APW+lo

       K=   0.04545   0.04545   0.04545            1
:RKM  : MATRIX SIZE  324LOs:  40  RKM= 5.97  WEIGHT= 8.00  PGR:    
       EIGENVALUES ARE:
:EIG00001:      -3.6418319   -3.6418203   -3.6418203   -1.6849877   -0.7449026
:EIG00006:      -0.6338412   -0.6338412   -0.4701195   -0.4701195   -0.4674445
:EIG00011:       0.2718210    0.2783269    0.2783269    0.4256550    0.4256550
:EIG00016:       0.4409357    0.4995907    0.5133651    0.5133651    0.5334821
:EIG00021:       0.5334821    0.5381143    0.6063386    0.6063386    0.8128650
:EIG00026:       0.8128650    0.8865130    0.9025227    0.9041673    0.9041673
:EIG00031:       0.9181580    0.9181580    0.9193016    1.0378261    1.0392025
:EIG00036:       1.0392025    1.0812837    1.3889547    1.8595693    1.8595693
:EIG00041:       1.8675576    1.9961978    2.0282679    2.0282679
       ********************************************************

:KPT   :      NUMBER OF K-POINTS:    56

          ATOMIC SPHERE DEPENDENT PARAMETERS FOR ATOM  La        
:e__0001: OVERALL ENERGY PARAMETER IS    0.4389
          OVERALL BASIS SET ON ATOM IS LAPW
:E0_0001: E( 0)=   -1.7191   E(BOTTOM)=   -2.191   E(TOP)=   -1.248  4  5   187
             APW+lo
:E0_0001: E( 0)=    0.8389
             LOCAL ORBITAL
:E1_0001: E( 1)=   -0.4190   E(BOTTOM)=   -1.162   E(TOP)=    0.324  3  4   185
             APW+lo
:E1_0001: E( 1)=    0.8389
             LOCAL ORBITAL
:E2_0001: E( 2)=    0.4389   E(BOTTOM)=    0.365   E(TOP)= -200.000  2 -1    81
             APW+lo

          ATOMIC SPHERE DEPENDENT PARAMETERS FOR ATOM  Co        
:e__0002: OVERALL ENERGY PARAMETER IS    0.4389
          OVERALL BASIS SET ON ATOM IS LAPW
:E1_0002: E( 1)=    0.4389
             APW+lo
:E1_0002: E( 1)=   -3.6762   E(BOTTOM)=   -3.832   E(TOP)=   -3.521  1  2   148
             LOCAL ORBITAL
:E2_0002: E( 2)=    0.4938   E(BOTTOM)=    0.037   E(TOP)=    0.951  0  1   150
             APW+lo
:E0_0002: E( 0)=    0.4389
             APW+lo

          ATOMIC SPHERE DEPENDENT PARAMETERS FOR ATOM  O         
:e__0003: OVERALL ENERGY PARAMETER IS    0.4389
          OVERALL BASIS SET ON ATOM IS LAPW
:E0_0003: E( 0)=   -0.5602   E(BOTTOM)=   -1.730   E(TOP)=    0.610  1  2   222
             APW+lo
:E0_0003: E( 0)=    0.8389
             LOCAL ORBITAL
:E1_0003: E( 1)=    0.4389
             APW+lo

       K=   0.04545   0.04545   0.04545            1
:RKM  : MATRIX SIZE  324LOs:  40  RKM= 5.97  WEIGHT= 8.00  PGR:    
       EIGENVALUES ARE:
:EIG00001:      -3.6418319   -3.6418203   -3.6418203   -1.6849877   -0.7449026
:EIG00006:      -0.6338412   -0.6338412   -0.4701195   -0.4701195   -0.4674445
:EIG00011:       0.2718210    0.2783269    0.2783269    0.4256550    0.4256550
:EIG00016:       0.4409357    0.4995907    0.5133651    0.5133651    0.5334821
:EIG00021:       0.5334821    0.5381143    0.6063386    0.6063386    0.8128650
:EIG00026:       0.8128650    0.8865130    0.9025227    0.9041673    0.9041673
:EIG00031:       0.9181580    0.9181580    0.9193016    1.0378261    1.0392025
:EIG00036:       1.0392025    1.0812837    1.3889547    1.8595693    1.8595693
:EIG00041:       1.8675576    1.9961978    2.0282679    2.0282679
       ********************************************************

:KPT   :      NUMBER OF K-POINTS:    56
:GAP  : -99999.   Ry = -9999.    eV  ( metallic )
         Bandranges (emin - emax) and occupancy:
:BAN00014:  14    0.256513    0.425655  1.00000000
:BAN00015:  15    0.299628    0.425655  1.00000000
:BAN00016:  16    0.303205    0.442421  1.00000000
:BAN00017:  17    0.391305    0.535752  1.00000000
:BAN00018:  18    0.434538    0.535752  1.00000000
:BAN00019:  19    0.445356    0.535752  1.00000000
:BAN00020:  20    0.533149    0.659478  0.94143502
:BAN00021:  21    0.533482    0.659478  0.92596222
:BAN00022:  22    0.538114    0.659478  0.90939426
:BAN00023:  23    0.606339    0.875721  0.21355465
:BAN00024:  24    0.606339    0.875721  0.00965385
:BAN00025:  25    0.812865    0.875721  0.00000000
:BAN00026:  26    0.812865    0.885705  0.00000000
:BAN00027:  27    0.876356    0.886857  0.00000000
:BAN00028:  28    0.886229    0.902523  0.00000000
:BAN00029:  29    0.888679    0.911713  0.00000000
        Energy to separate low and high energystates:    0.03325


:NOE  : NUMBER OF ELECTRONS          =  44.000

:FER  : F E R M I - ENERGY(TETRAH.M.)=   0.6397013040
:GMA  : POTENTIAL AND CHARGE CUT-OFF  12.00 Ry**.5




:POS001: ATOM    1 X,Y,Z = 0.00000 0.00000 0.00000  MULT= 1  ZZ= 57.000  La        

       LMMAX  5
       LM=   0 0  4 0  4 4  6 0  6 4

:CHA001: TOTAL VALENCE CHARGE INSIDE SPHERE   1 =   3.8923    (RMT=  2.5000 )
:PCS001: PARTIAL CHARGES SPHERE =  1 S,P,D,F,      D-EG,D-T2G 
:QTL001: 0.9725 2.6559 0.1785 0.0811 0.0000 0.0000 0.0000 0.0664 0.1122 0.0000 0.0000 0.0000
        Q-s-low E-s-low   Q-p-low E-p-low   Q-d-low E-d-low   Q-f-low E-f-low
:EPL001:  0.9498 -1.6708    2.5204 -0.4744    0.0064 -0.6385    0.0021 -0.6150
        Q-s-hi  E-s-hi    Q-p-hi  E-p-hi    Q-d-hi  E-d-hi    Q-f-hi  E-f-hi 
:EPH001:  0.0227  0.3257    0.1355  0.3581    0.1722  0.3949    0.0790  0.4575




:POS002: ATOM    2 X,Y,Z = 0.50000 0.50000 0.50000  MULT= 1  ZZ= 27.000  Co        

       LMMAX  5
       LM=   0 0  4 0  4 4  6 0  6 4

:CHA002: TOTAL VALENCE CHARGE INSIDE SPHERE   2 =   6.5215    (RMT=  1.9400 )
:PCS002: PARTIAL CHARGES SPHERE =  2 S,P,D,F,      D-EG,D-T2G 
:QTL002: 0.0912 3.0926 3.3149 0.0183 0.0000 0.0000 0.0000 0.7982 2.5167 0.0000 0.0000 0.0000
        Q-s-low E-s-low   Q-p-low E-p-low   Q-d-low E-d-low   Q-f-low E-f-low
:EPL002:  0.0197 -0.7029    2.9984 -3.6186    0.0342 -0.6262    0.0030 -0.6256
        Q-s-hi  E-s-hi    Q-p-hi  E-p-hi    Q-d-hi  E-d-hi    Q-f-hi  E-f-hi 
:EPH002:  0.0715  0.1884    0.0942  0.2831    3.2807  0.5030    0.0152  0.4168




:POS003: ATOM   -3 X,Y,Z = 0.50000 0.50000 0.00000  MULT= 3  ZZ=  8.000  O         

       LMMAX  6
       LM=   0 0  2 0  4 0  4 4  6 0  6 4

:CHA003: TOTAL VALENCE CHARGE INSIDE SPHERE   3 =   2.6586    (RMT=  1.6700 )
:PCS003: PARTIAL CHARGES SPHERE =  3 S,P,D,F,PZ,PXY,,D-Z2,D-XY,D-X2Y2,D-XZ,YZ 
:QTL003: 0.8125 1.8347 0.0088 0.0019 0.5551 1.2796 0.0000 0.0021 0.0006 0.0005 0.0055 0.0000
        Q-s-low E-s-low   Q-p-low E-p-low   Q-d-low E-d-low   Q-f-low E-f-low
:EPL003:  0.7968 -0.6556    0.0119 -0.6571    0.0012 -1.1902    0.0002 -2.0967
        Q-s-hi  E-s-hi    Q-p-hi  E-p-hi    Q-d-hi  E-d-hi    Q-f-hi  E-f-hi 
:EPH003:  0.0157  0.4060    1.8228  0.3750    0.0075  0.4743    0.0017  0.4374
:VZZ003: EFG INSIDE SPHERE   3 =     5.014198      UP TO R =   1.67000

:CHA  : TOTAL VALENCE CHARGE INSIDE UNIT CELL =      22.000000

:SUM  : SUM OF EIGENVALUES =         -11.141926337

:GAP  : -99999.   Ry = -9999.    eV  ( metallic )
         Bandranges (emin - emax) and occupancy:
:BAN00014:  14    0.256513    0.425655  1.00000000
:BAN00015:  15    0.299628    0.425655  1.00000000
:BAN00016:  16    0.303205    0.442421  1.00000000
:BAN00017:  17    0.391305    0.535752  1.00000000
:BAN00018:  18    0.434538    0.535752  1.00000000
:BAN00019:  19    0.445356    0.535752  1.00000000
:BAN00020:  20    0.533149    0.659478  0.94143502
:BAN00021:  21    0.533482    0.659478  0.92596222
:BAN00022:  22    0.538114    0.659478  0.90939426
:BAN00023:  23    0.606339    0.875721  0.21355465
:BAN00024:  24    0.606339    0.875721  0.00965385
:BAN00025:  25    0.812865    0.875721  0.00000000
:BAN00026:  26    0.812865    0.885705  0.00000000
:BAN00027:  27    0.876356    0.886857  0.00000000
:BAN00028:  28    0.886229    0.902523  0.00000000
:BAN00029:  29    0.888679    0.911713  0.00000000
        Energy to separate low and high energystates:    0.03325


:NOE  : NUMBER OF ELECTRONS          =  44.000

:FER  : F E R M I - ENERGY(TETRAH.M.)=   0.6397013040
:GMA  : POTENTIAL AND CHARGE CUT-OFF  12.00 Ry**.5




:POS001: ATOM    1 X,Y,Z = 0.00000 0.00000 0.00000  MULT= 1  ZZ= 57.000  La        

       LMMAX  5
       LM=   0 0  4 0  4 4  6 0  6 4

:CHA001: TOTAL VALENCE CHARGE INSIDE SPHERE   1 =   3.8923    (RMT=  2.5000 )
:PCS001: PARTIAL CHARGES SPHERE =  1 S,P,D,F,      D-EG,D-T2G 
:QTL001: 0.9725 2.6559 0.1785 0.0811 0.0000 0.0000 0.0000 0.0664 0.1122 0.0000 0.0000 0.0000
        Q-s-low E-s-low   Q-p-low E-p-low   Q-d-low E-d-low   Q-f-low E-f-low
:EPL001:  0.9498 -1.6708    2.5204 -0.4744    0.0064 -0.6385    0.0021 -0.6150
        Q-s-hi  E-s-hi    Q-p-hi  E-p-hi    Q-d-hi  E-d-hi    Q-f-hi  E-f-hi 
:EPH001:  0.0227  0.3257    0.1355  0.3581    0.1722  0.3949    0.0790  0.4575




:POS002: ATOM    2 X,Y,Z = 0.50000 0.50000 0.50000  MULT= 1  ZZ= 27.000  Co        

       LMMAX  5
       LM=   0 0  4 0  4 4  6 0  6 4

:CHA002: TOTAL VALENCE CHARGE INSIDE SPHERE   2 =   6.5215    (RMT=  1.9400 )
:PCS002: PARTIAL CHARGES SPHERE =  2 S,P,D,F,      D-EG,D-T2G 
:QTL002: 0.0912 3.0926 3.3149 0.0183 0.0000 0.0000 0.0000 0.7982 2.5167 0.0000 0.0000 0.0000
        Q-s-low E-s-low   Q-p-low E-p-low   Q-d-low E-d-low   Q-f-low E-f-low
:EPL002:  0.0197 -0.7029    2.9984 -3.6186    0.0342 -0.6262    0.0030 -0.6256
        Q-s-hi  E-s-hi    Q-p-hi  E-p-hi    Q-d-hi  E-d-hi    Q-f-hi  E-f-hi 
:EPH002:  0.0715  0.1884    0.0942  0.2831    3.2807  0.5030    0.0152  0.4168




:POS003: ATOM   -3 X,Y,Z = 0.50000 0.50000 0.00000  MULT= 3  ZZ=  8.000  O         

       LMMAX  6
       LM=   0 0  2 0  4 0  4 4  6 0  6 4

:CHA003: TOTAL VALENCE CHARGE INSIDE SPHERE   3 =   2.6586    (RMT=  1.6700 )
:PCS003: PARTIAL CHARGES SPHERE =  3 S,P,D,F,PZ,PXY,,D-Z2,D-XY,D-X2Y2,D-XZ,YZ 
:QTL003: 0.8125 1.8347 0.0088 0.0019 0.5551 1.2796 0.0000 0.0021 0.0006 0.0005 0.0055 0.0000
        Q-s-low E-s-low   Q-p-low E-p-low   Q-d-low E-d-low   Q-f-low E-f-low
:EPL003:  0.7968 -0.6556    0.0119 -0.6571    0.0012 -1.1902    0.0002 -2.0967
        Q-s-hi  E-s-hi    Q-p-hi  E-p-hi    Q-d-hi  E-d-hi    Q-f-hi  E-f-hi 
:EPH003:  0.0157  0.4060    1.8228  0.3750    0.0075  0.4743    0.0017  0.4374
:VZZ003: EFG INSIDE SPHERE   3 =     5.014198      UP TO R =   1.67000

:CHA  : TOTAL VALENCE CHARGE INSIDE UNIT CELL =      22.000000

:SUM  : SUM OF EIGENVALUES =         -11.141926336


        1.ATOM      La                   14 CORE STATES
:1S 001: 1S               -2841.676715673 Ry
:2S 001: 2S                -451.241372463 Ry
:2PP001: 2P*               -425.686271195 Ry
:2P 001: 2P                -395.360114862 Ry
:3S 001: 3S                 -95.515178283 Ry
[...]
:FIT002: LUSE= 13 SIGMA OF V-XC FIT FOR ATOM  2  0.3606731E-02
:FIT002: LUSE= 13 SIGMA OF V-XC FIT FOR ATOM  2  0.3606731E-02
:FIT003: LUSE= 13 SIGMA OF V-XC FIT FOR ATOM  3  0.1964879E-03
:FIT003: LUSE= 13 SIGMA OF V-XC FIT FOR ATOM  3  0.1964879E-03
:DEN  : DENSITY INTEGRAL  =         -7922.25453105   (Ry)
       ELS_POTENTIAL_AT Z=0 and Z=0.5:   0.00000   0.00000
       ELS_POTENTIAL_AT Y=0 and Y=0.5:   0.00000   0.00000
:VZERO:v0,v0c,v0x  -0.85437   0.00000  -0.85437 v5,v5c,v5x  -0.85437   0.00000  -0.85437
:VZERY:v0,v0c,v0x  -0.85437   0.00000  -0.85437 v5,v5c,v5x  -0.85437   0.00000  -0.85437
:VZERX:v0,v0c,v0x  -4.27127  -3.14812  -1.12315 v5,v5c,v5x  -2.41513  -1.35946  -1.05567
:LMAX-WF:   10   Non-Spherical LMAX:   4

          ATOMIC SPHERE DEPENDENT PARAMETERS FOR ATOM  La        
:e__0001: OVERALL ENERGY PARAMETER IS    0.3000
          OVERALL BASIS SET ON ATOM IS LAPW
:E0_0001: E( 0)=   -1.7189   E(BOTTOM)=   -2.190   E(TOP)=   -1.247  4  5   180
             APW+lo
:E0_0001: E( 0)=    0.7000
             LOCAL ORBITAL
:E1_0001: E( 1)=   -0.4188   E(BOTTOM)=   -1.161   E(TOP)=    0.324  3  4   185
             APW+lo
:E1_0001: E( 1)=    0.7000
             LOCAL ORBITAL
:E2_0001: E( 2)=    0.3654   E(BOTTOM)=    0.365   E(TOP)= -200.000  2 -1    87
             APW+lo

          ATOMIC SPHERE DEPENDENT PARAMETERS FOR ATOM  Co        
:e__0002: OVERALL ENERGY PARAMETER IS    0.3000
          OVERALL BASIS SET ON ATOM IS LAPW
:E1_0002: E( 1)=    0.3000
             APW+lo
:E1_0002: E( 1)=   -3.6772   E(BOTTOM)=   -3.832   E(TOP)=   -3.522  1  2   141
             LOCAL ORBITAL
:E2_0002: E( 2)=    0.4929   E(BOTTOM)=    0.036   E(TOP)=    0.950  0  1   147
             APW+lo
:E0_0002: E( 0)=    0.3000
             APW+lo

          ATOMIC SPHERE DEPENDENT PARAMETERS FOR ATOM  O         
:e__0003: OVERALL ENERGY PARAMETER IS    0.3000
          OVERALL BASIS SET ON ATOM IS LAPW
:E0_0003: E( 0)=   -0.5602   E(BOTTOM)=   -1.730   E(TOP)=    0.610  1  2   226
             APW+lo
:E0_0003: E( 0)=    0.7000
             LOCAL ORBITAL
:E1_0003: E( 1)=    0.3000
             APW+lo

       K=   0.04545   0.04545   0.04545            1
:RKM  : MATRIX SIZE   324LOs:  40  RKM= 5.97  WEIGHT= 8.00  PGR:    
       EIGENVALUES ARE:
:EIG00001:      -3.6427968   -3.6427853   -3.6427853   -1.6847423   -0.7449151
:EIG00006:      -0.6338650   -0.6338650   -0.4699273   -0.4699273   -0.4672504
:EIG00011:       0.2717790    0.2782746    0.2782746    0.4256239    0.4256239
:EIG00016:       0.4409597    0.4992487    0.5131419    0.5131419    0.5329203
:EIG00021:       0.5329203    0.5376857    0.6056706    0.6056706    0.8132357
:EIG00026:       0.8132357    0.8972826    0.9145607    0.9161576    0.9161576
:EIG00031:       0.9304599    0.9304599    0.9320911    1.0380543    1.0395422
:EIG00036:       1.0395422    1.0813533    1.3888210    1.8646118    1.8646118
:EIG00041:       1.8725460    1.9983654
       ********************************************************

:KPT   :      NUMBER OF K-POINTS:    56
:LMAX-WF:   10   Non-Spherical LMAX:   4

          ATOMIC SPHERE DEPENDENT PARAMETERS FOR ATOM  La        
:e__0001: OVERALL ENERGY PARAMETER IS    0.3000
          OVERALL BASIS SET ON ATOM IS LAPW
:E0_0001: E( 0)=   -1.7189   E(BOTTOM)=   -2.190   E(TOP)=   -1.247  4  5   180
             APW+lo
:E0_0001: E( 0)=    0.7000
             LOCAL ORBITAL
:E1_0001: E( 1)=   -0.4188   E(BOTTOM)=   -1.161   E(TOP)=    0.324  3  4   185
             APW+lo
:E1_0001: E( 1)=    0.7000
             LOCAL ORBITAL
:E2_0001: E( 2)=    0.3654   E(BOTTOM)=    0.365   E(TOP)= -200.000  2 -1    87
             APW+lo

          ATOMIC SPHERE DEPENDENT PARAMETERS FOR ATOM  Co        
:e__0002: OVERALL ENERGY PARAMETER IS    0.3000
          OVERALL BASIS SET ON ATOM IS LAPW
:E1_0002: E( 1)=    0.3000
             APW+lo
:E1_0002: E( 1)=   -3.6772   E(BOTTOM)=   -3.832   E(TOP)=   -3.522  1  2   141
             LOCAL ORBITAL
:E2_0002: E( 2)=    0.4929   E(BOTTOM)=    0.036   E(TOP)=    0.950  0  1   147
             APW+lo
:E0_0002: E( 0)=    0.3000
             APW+lo

          ATOMIC SPHERE DEPENDENT PARAMETERS FOR ATOM  O         
:e__0003: OVERALL ENERGY PARAMETER IS    0.3000
          OVERALL BASIS SET ON ATOM IS LAPW
:E0_0003: E( 0)=   -0.5602   E(BOTTOM)=   -1.730   E(TOP)=    0.610  1  2   226
             APW+lo
:E0_0003: E( 0)=    0.7000
             LOCAL ORBITAL
:E1_0003: E( 1)=    0.3000
             APW+lo

       K=   0.04545   0.04545   0.04545            1
:RKM  : MATRIX SIZE   324LOs:  40  RKM= 5.97  WEIGHT= 8.00  PGR:    
       EIGENVALUES ARE:
:EIG00001:      -3.6427968   -3.6427853   -3.6427853   -1.6847423   -0.7449151
:EIG00006:      -0.6338650   -0.6338650   -0.4699273   -0.4699273   -0.4672504
:EIG00011:       0.2717790    0.2782746    0.2782746    0.4256239    0.4256239
:EIG00016:       0.4409597    0.4992487    0.5131419    0.5131419    0.5329203
:EIG00021:       0.5329203    0.5376857    0.6056706    0.6056706    0.8132357
:EIG00026:       0.8132357    0.8972826    0.9145607    0.9161576    0.9161576
:EIG00031:       0.9304599    0.9304599    0.9320911    1.0380543    1.0395422
:EIG00036:       1.0395422    1.0813533    1.3888210    1.8646118    1.8646118
:EIG00041:       1.8725460    1.9983654
       ********************************************************

:KPT   :      NUMBER OF K-POINTS:    56
:GAP (global)   :    0.0    Ry =     0.0   eV (metal)
:GAP (this spin):    0.0    Ry =     0.0   eV (metal)
         Bandranges (emin - emax) and occupancy:
:BAN00014:  14    0.256320    0.425624  1.00000000
:BAN00015:  15    0.299475    0.425624  1.00000000
:BAN00016:  16    0.303047    0.442444  1.00000000
:BAN00017:  17    0.391228    0.535819  1.00000000
:BAN00018:  18    0.434487    0.535819  1.00000000
:BAN00019:  19    0.445268    0.535819  1.00000000
:BAN00020:  20    0.532471    0.658848  0.94150153
:BAN00021:  21    0.532920    0.658848  0.92613946
:BAN00022:  22    0.537686    0.658848  0.90938558
:BAN00023:  23    0.605671    0.876265  0.21333781
:BAN00024:  24    0.605671    0.876525  0.00963561
:BAN00025:  25    0.813236    0.885048  0.00000000
:BAN00026:  26    0.813236    0.895768  0.00000000
:BAN00027:  27    0.884943    0.897323  0.00000000
:BAN00028:  28    0.896190    0.914561  0.00000000
:BAN00029:  29    0.899080    0.923341  0.00000000
        Energy to separate low and high energystates:    0.03314


:NOE  : NUMBER OF ELECTRONS          =  44.000

:FER  : F E R M I - ENERGY(TETRAH.M.)=   0.6390652365
:GMA  : POTENTIAL AND CHARGE CUT-OFF  12.00 Ry**.5




:POS001: ATOM    1 X,Y,Z = 0.00000 0.00000 0.00000  MULT= 1  ZZ= 57.000  La        

       LMMAX  5
       LM=   0 0  4 0  4 4  6 0  6 4

:CHA001: TOTAL VALENCE CHARGE INSIDE SPHERE   1 =   3.8911    (RMT=  2.5000 )
:PCS001: PARTIAL CHARGES SPHERE =  1 S,P,D,F,      D-EG,D-T2G 
:QTL001: 0.9725 2.6558 0.1784 0.0800 0.0000 0.0000 0.0000 0.0663 0.1121 0.0000 0.0000 0.0000
        Q-s-low E-s-low   Q-p-low E-p-low   Q-d-low E-d-low   Q-f-low E-f-low
:EPL001:  0.9498 -1.6706    2.5203 -0.4742    0.0064 -0.6385    0.0020 -0.6148
        Q-s-hi  E-s-hi    Q-p-hi  E-p-hi    Q-d-hi  E-d-hi    Q-f-hi  E-f-hi 
:EPH001:  0.0227  0.3257    0.1356  0.3581    0.1721  0.3948    0.0780  0.4565




:POS002: ATOM    2 X,Y,Z = 0.50000 0.50000 0.50000  MULT= 1  ZZ= 27.000  Co        

       LMMAX  5
       LM=   0 0  4 0  4 4  6 0  6 4

:CHA002: TOTAL VALENCE CHARGE INSIDE SPHERE   2 =   6.5236    (RMT=  1.9400 )
:PCS002: PARTIAL CHARGES SPHERE =  2 S,P,D,F,      D-EG,D-T2G 
:QTL002: 0.0913 3.0926 3.3171 0.0183 0.0000 0.0000 0.0000 0.7993 2.5177 0.0000 0.0000 0.0000
        Q-s-low E-s-low   Q-p-low E-p-low   Q-d-low E-d-low   Q-f-low E-f-low
:EPL002:  0.0197 -0.7030    2.9985 -3.6196    0.0342 -0.6262    0.0030 -0.6256
        Q-s-hi  E-s-hi    Q-p-hi  E-p-hi    Q-d-hi  E-d-hi    Q-f-hi  E-f-hi 
:EPH002:  0.0716  0.1883    0.0942  0.2830    3.2828  0.5022    0.0152  0.4168




:POS003: ATOM   -3 X,Y,Z = 0.50000 0.50000 0.00000  MULT= 3  ZZ=  8.000  O         

       LMMAX  6
       LM=   0 0  2 0  4 0  4 4  6 0  6 4

:CHA003: TOTAL VALENCE CHARGE INSIDE SPHERE   3 =   2.6584    (RMT=  1.6700 )
:PCS003: PARTIAL CHARGES SPHERE =  3 S,P,D,F,PZ,PXY,,D-Z2,D-XY,D-X2Y2,D-XZ,YZ 
:QTL003: 0.8125 1.8344 0.0088 0.0019 0.5548 1.2796 0.0000 0.0021 0.0006 0.0005 0.0054 0.0000
        Q-s-low E-s-low   Q-p-low E-p-low   Q-d-low E-d-low   Q-f-low E-f-low
:EPL003:  0.7968 -0.6556    0.0119 -0.6559    0.0012 -1.1894    0.0002 -2.0973
        Q-s-hi  E-s-hi    Q-p-hi  E-p-hi    Q-d-hi  E-d-hi    Q-f-hi  E-f-hi 
:EPH003:  0.0157  0.4059    1.8226  0.3750    0.0075  0.4736    0.0017  0.4368
:VZZ003: EFG INSIDE SPHERE   3 =     4.996720      UP TO R =   1.67000

:CHA  : TOTAL VALENCE CHARGE INSIDE UNIT CELL =      22.000000

:SUM  : SUM OF EIGENVALUES =         -11.146863858

:GAP (global)   :    0.0    Ry =     0.0   eV (metal)
:GAP (this spin):    0.0    Ry =     0.0   eV (metal)
         Bandranges (emin - emax) and occupancy:
:BAN00014:  14    0.256320    0.425624  1.00000000
:BAN00015:  15    0.299475    0.425624  1.00000000
:BAN00016:  16    0.303047    0.442444  1.00000000
:BAN00017:  17    0.391228    0.535819  1.00000000
:BAN00018:  18    0.434487    0.535819  1.00000000
:BAN00019:  19    0.445268    0.535819  1.00000000
:BAN00020:  20    0.532471    0.658848  0.94150153
:BAN00021:  21    0.532920    0.658848  0.92613946
:BAN00022:  22    0.537686    0.658848  0.90938558
:BAN00023:  23    0.605671    0.876265  0.21333781
:BAN00024:  24    0.605671    0.876525  0.00963561
:BAN00025:  25    0.813236    0.885048  0.00000000
:BAN00026:  26    0.813236    0.895768  0.00000000
:BAN00027:  27    0.884943    0.897323  0.00000000
:BAN00028:  28    0.896190    0.914561  0.00000000
:BAN00029:  29    0.899080    0.923341  0.00000000
        Energy to separate low and high energystates:    0.03314


:NOE  : NUMBER OF ELECTRONS          =  44.000

:FER  : F E R M I - ENERGY(TETRAH.M.)=   0.6390652365
:GMA  : POTENTIAL AND CHARGE CUT-OFF  12.00 Ry**.5




:POS001: ATOM    1 X,Y,Z = 0.00000 0.00000 0.00000  MULT= 1  ZZ= 57.000  La        

       LMMAX  5
       LM=   0 0  4 0  4 4  6 0  6 4

:CHA001: TOTAL VALENCE CHARGE INSIDE SPHERE   1 =   3.8911    (RMT=  2.5000 )
:PCS001: PARTIAL CHARGES SPHERE =  1 S,P,D,F,      D-EG,D-T2G 
:QTL001: 0.9725 2.6558 0.1784 0.0800 0.0000 0.0000 0.0000 0.0663 0.1121 0.0000 0.0000 0.0000
        Q-s-low E-s-low   Q-p-low E-p-low   Q-d-low E-d-low   Q-f-low E-f-low
:EPL001:  0.9498 -1.6706    2.5203 -0.4742    0.0064 -0.6385    0.0020 -0.6148
        Q-s-hi  E-s-hi    Q-p-hi  E-p-hi    Q-d-hi  E-d-hi    Q-f-hi  E-f-hi 
:EPH001:  0.0227  0.3257    0.1356  0.3581    0.1721  0.3948    0.0780  0.4565




:POS002: ATOM    2 X,Y,Z = 0.50000 0.50000 0.50000  MULT= 1  ZZ= 27.000  Co        

       LMMAX  5
       LM=   0 0  4 0  4 4  6 0  6 4

:CHA002: TOTAL VALENCE CHARGE INSIDE SPHERE   2 =   6.5236    (RMT=  1.9400 )
:PCS002: PARTIAL CHARGES SPHERE =  2 S,P,D,F,      D-EG,D-T2G 
:QTL002: 0.0913 3.0926 3.3171 0.0183 0.0000 0.0000 0.0000 0.7993 2.5177 0.0000 0.0000 0.0000
        Q-s-low E-s-low   Q-p-low E-p-low   Q-d-low E-d-low   Q-f-low E-f-low
:EPL002:  0.0197 -0.7030    2.9985 -3.6196    0.0342 -0.6262    0.0030 -0.6256
        Q-s-hi  E-s-hi    Q-p-hi  E-p-hi    Q-d-hi  E-d-hi    Q-f-hi  E-f-hi 
:EPH002:  0.0716  0.1883    0.0942  0.2830    3.2828  0.5022    0.0152  0.4168




:POS003: ATOM   -3 X,Y,Z = 0.50000 0.50000 0.00000  MULT= 3  ZZ=  8.000  O         

       LMMAX  6
       LM=   0 0  2 0  4 0  4 4  6 0  6 4

:CHA003: TOTAL VALENCE CHARGE INSIDE SPHERE   3 =   2.6584    (RMT=  1.6700 )
:PCS003: PARTIAL CHARGES SPHERE =  3 S,P,D,F,PZ,PXY,,D-Z2,D-XY,D-X2Y2,D-XZ,YZ 
:QTL003: 0.8125 1.8344 0.0088 0.0019 0.5548 1.2796 0.0000 0.0021 0.0006 0.0005 0.0054 0.0000
        Q-s-low E-s-low   Q-p-low E-p-low   Q-d-low E-d-low   Q-f-low E-f-low
:EPL003:  0.7968 -0.6556    0.0119 -0.6559    0.0012 -1.1894    0.0002 -2.0973
        Q-s-hi  E-s-hi    Q-p-hi  E-p-hi    Q-d-hi  E-d-hi    Q-f-hi  E-f-hi 
:EPH003:  0.0157  0.4059    1.8226  0.3750    0.0075  0.4736    0.0017  0.4368
:VZZ003: EFG INSIDE SPHERE   3 =     4.996720      UP TO R =   1.67000

:CHA  : TOTAL VALENCE CHARGE INSIDE UNIT CELL =      22.000000

:SUM  : SUM OF EIGENVALUES =         -11.146863858


        1.ATOM      La                   14 CORE STATES
:1S 001: 1S               -2841.676347867 Ry
:2S 001: 2S                -451.241002398 Ry
:2PP001: 2P*               -425.685901570 Ry
:2P 001: 2P                -395.359745087 Ry
:3S 001: 3S                 -95.514807885 Ry
:3PP001: 3P*                -84.720390781 Ry
:3P 001: 3P                 -78.812788124 Ry
:3DD001: 3D*                -59.836918645 Ry
:3D 001: 3D                 -58.571540428 Ry
:4S 001: 4S                 -18.283926282 Ry
:4PP001: 4P*                -14.313025169 Ry
:4P 001: 4P                 -13.047520162 Ry
:4DD001: 4D*                 -6.528454994 Ry
:4D 001: 4D                  -6.309120380 Ry

        2.ATOM      Co                    5 CORE STATES
:1S 002: 1S                -555.590576920 Ry
:2S 002: 2S                 -64.745944889 Ry
:2PP002: 2P*                -56.094144401 Ry
:2P 002: 2P                 -55.007222308 Ry
:3S 002: 3S                  -6.311990083 Ry

        3.ATOM      O                     1 CORE STATES
:1S 003: 1S                 -36.245705687 Ry

        1.ATOM      La                   14 CORE STATES
:1S 001: 1S               -2841.676347867 Ry
:2S 001: 2S                -451.241002398 Ry
:2PP001: 2P*               -425.685901570 Ry
:2P 001: 2P                -395.359745087 Ry
:3S 001: 3S                 -95.514807885 Ry
:3PP001: 3P*                -84.720390781 Ry
:3P 001: 3P                 -78.812788124 Ry
:3DD001: 3D*                -59.836918645 Ry
:3D 001: 3D                 -58.571540428 Ry
:4S 001: 4S                 -18.283926282 Ry
:4PP001: 4P*                -14.313025169 Ry
:4P 001: 4P                 -13.047520162 Ry
:4DD001: 4D*                 -6.528454994 Ry
:4D 001: 4D                  -6.309120380 Ry

        2.ATOM      Co                    5 CORE STATES
:1S 002: 1S                -555.590576920 Ry
:2S 002: 2S                 -64.745944889 Ry
:2PP002: 2P*                -56.094144401 Ry
:2P 002: 2P                 -55.007222308 Ry
:3S 002: 3S                  -6.311990083 Ry

        3.ATOM      O                     1 CORE STATES
:1S 003: 1S                 -36.245705687 Ry
:CINT001 Core Integral Atom   1 Up   22.999414 Dn  22.999414 Total  45.998828
:CINT002 Core Integral Atom   2 Up    5.997387 Dn   5.997387 Total  11.994775
:CINT003 Core Integral Atom   3 Up    1.000000 Dn   1.000000 Total   2.000000

       DENSITY AT NUCLEUS
        JATOM        VALENCE       SEMI-CORE          CORE           TOTAL
:RTO001:   1      500.303791        0.000000   535464.359751   535964.663542
:RTO002:   2        6.036697        0.000000    17399.218557    17405.255254
:RTO003:   3       15.042318        0.000000      299.383421      314.425739

       HYPERFINE FIELDS FOR THOMSON RADIUS
:HFF001:            0.000           0.000           0.000           0.000 (KGAUSS)
:HFF002:            0.000           0.000           0.000           0.000 (KGAUSS)
:HFF003:            0.000           0.000           0.000           0.000 (KGAUSS)
     
       CHARGES OF NEW CHARGE DENSITY
:NTO   : INTERSTITIAL     UP =     3.610183 DN =     3.610183 TOT =     7.220366
:NTO001: CHARGE SPHERE  1 UP =    26.890476 DN =    26.890476 TOT =    53.780952
:NTO002: CHARGE SPHERE  2 UP =    12.521003 DN =    12.521003 TOT =    25.042006
:NTO003: CHARGE SPHERE  3 UP =     3.658377 DN =     3.658377 TOT =     7.316754

:NEC01: NUCLEAR AND ELECTRONIC CHARGE    108.00000   107.99359
     
       CHARGES OF OLD CHARGE DENSITY
:OTO   : INTERSTITIAL     UP =     3.613059 DN =     3.613059 TOT =     7.226119
:OTO001: CHARGE SPHERE  1 UP =    26.891368 DN =    26.891368 TOT =    53.782737
:OTO002: CHARGE SPHERE  2 UP =    12.520676 DN =    12.520676 TOT =    25.041352
:OTO003: CHARGE SPHERE  3 UP =     3.658299 DN =     3.658299 TOT =     7.316598

:NEC02: NUCLEAR AND ELECTRONIC CHARGE    108.00000   108.00000
     
       CONVERGENCE TEST
:DTO001: DIFFERENCE SPHERE  1 UP =  0.0010416 DN =  0.0010416 TOT =  0.0020831
:DTO002: DIFFERENCE SPHERE  2 UP =  0.0006520 DN =  0.0006520 TOT =  0.0013040
:DTO003: DIFFERENCE SPHERE  3 UP =  0.0000821 DN =  0.0000821 TOT =  0.0001643

:DIS  :  CHARGE DISTANCE       (  0.001042 for atom    1 spin 2)       0.001552
 
******************************************************
* MULTISECANT MIXING VER7 RELEASE 7.1.2              *
* Standard Mode with controls                        *
* Upper Bound on PW scaling active                   *
* Regularization       1.000E-04                     *
* Greed Lower Bound    2.500E-02                     *
* Trust Upper Limit    1.200E+01                     *
* Charge change trust active                         *
* Max Number of Memory Steps    8                    *
******************************************************
 
:INFO : Forcing a restart
:PLANE:  INTERSTITIAL TOTAL      2.75062 DISTAN  3.190E-02 % 
:CHARG:  CLM CHARGE   /ATOM     88.19331 DISTAN  3.031E-03 % 

Step History
      DMIX        Red     Pred      Trust     Lambda    MagRel    MagAbs     Beta
  1  3.50E-02 -1.00E+00  1.00E+00 -1.00E+01  1.00E+00  3.50E-02  3.50E-02  1.00E+00
:INFO :  Note, Pratt in use
:DIRM :  MEMORY  0/ 8 RESCALE    1.00
:MIX  :   PRATT  REGULARIZATION: 1.00E-04  GREED: 0.1500
     
       CHARGES OF MIXED CHARGE DENSITY
:CTO   : INTERSTITIAL     UP =     3.613109 DN =     3.613109 TOT =     7.226218
:CTO001: CHARGE SPHERE  1 UP =    26.891235 DN =    26.891235 TOT =    53.782469
:CTO002: CHARGE SPHERE  2 UP =    12.520725 DN =    12.520725 TOT =    25.041450
:CTO003: CHARGE SPHERE  3 UP =     3.658311 DN =     3.658311 TOT =     7.316621

       SPIN MAGNETIC MOMENTS OF MIXED CHARGE DENSITY
:MMINT:  MAGNETIC MOMENT IN INTERSTITIAL  =   -0.00000
:MMI001: MAGNETIC MOMENT IN SPHERE   1    =   -0.00000
:MMI002: MAGNETIC MOMENT IN SPHERE   2    =   -0.00000
:MMI003: MAGNETIC MOMENT IN SPHERE   3    =   -0.00000
:MMTOT:  SPIN MAGNETIC MOMENT IN CELL     =   -0.00000

:NEC03: NUCLEAR AND ELECTRONIC CHARGE    108.00000   108.00000

PW CHANGE     H    K    L      Current       Change    Residue
:PUP001:      0    0    0  3.49931415E-02  9.944E-07  6.629E-06
:PUP002:     -1    0    0  1.25356836E-02 -4.158E-07 -2.772E-06
:PUP003:     -1   -1    0  4.48781920E-02 -4.296E-07 -2.864E-06
:PUP004:     -1   -1   -1  7.46541587E-02  3.783E-06  2.522E-05
:PUP005:     -2    0    0  4.32905307E-02  2.594E-06  1.729E-05
:PUP006:     -2   -1    0  1.13590346E-02 -1.881E-06 -1.254E-05
:PUP007:     -2   -1   -1  6.59668529E-03 -1.001E-06 -6.674E-06
:PUP008:     -2   -2    0  1.49611586E-02  2.416E-06  1.611E-05
:PUP009:     -3    0    0  1.66376487E-03 -1.940E-07 -1.293E-06
:PUP010:     -2   -2   -1  3.86891678E-03 -1.571E-06 -1.047E-05
:PUP011:     -3   -1    0 -7.47945313E-03 -1.300E-06 -8.665E-06
:PUP012:     -3   -1   -1  9.90707831E-03  3.236E-06  2.157E-05
:PDN001:      0    0    0  3.49931415E-02  9.944E-07  6.629E-06
:PDN002:     -1    0    0  1.25356836E-02 -4.158E-07 -2.772E-06
:PDN003:     -1   -1    0  4.48781920E-02 -4.296E-07 -2.864E-06
:PDN004:     -1   -1   -1  7.46541587E-02  3.783E-06  2.522E-05
:PDN005:     -2    0    0  4.32905307E-02  2.594E-06  1.729E-05
:PDN006:     -2   -1    0  1.13590346E-02 -1.881E-06 -1.254E-05
:PDN007:     -2   -1   -1  6.59668530E-03 -1.001E-06 -6.674E-06
:PDN008:     -2   -2    0  1.49611586E-02  2.416E-06  1.611E-05
:PDN009:     -3    0    0  1.66376487E-03 -1.940E-07 -1.293E-06
:PDN010:     -2   -2   -1  3.86891679E-03 -1.571E-06 -1.047E-05
:PDN011:     -3   -1    0 -7.47945313E-03 -1.300E-06 -8.665E-06
:PDN012:     -3   -1   -1  9.90707831E-03  3.236E-06  2.157E-05

:ENE  : ********** TOTAL ENERGY IN Ry =       -20214.03317151

